TITLE ="t=0.300000" 
VARIABLES = "x"  "y"  "z"   "phi"  "phi_pre"  "mu"  "mu_prev" 
ZONE N=9261, E=8000, F=FEPOINT, ET=BRICK
0.000000e+00 0.000000e+00 0.000000e+00 9.575296e-01 9.575296e-01 -2.744941e-02 -2.744941e-02 
5.000000e-02 0.000000e+00 0.000000e+00 9.490612e-01 9.490612e-01 -3.097463e-02 -3.097463e-02 
1.000000e-01 0.000000e+00 0.000000e+00 9.211985e-01 9.211985e-01 -3.526256e-02 -3.526256e-02 
1.500000e-01 0.000000e+00 0.000000e+00 8.691946e-01 8.691946e-01 -3.951444e-02 -3.951444e-02 
2.000000e-01 0.000000e+00 0.000000e+00 8.042302e-01 8.042302e-01 -4.172257e-02 -4.172257e-02 
2.500000e-01 0.000000e+00 0.000000e+00 7.652169e-01 7.652169e-01 -3.970240e-02 -3.970240e-02 
3.000000e-01 0.000000e+00 0.000000e+00 7.794299e-01 7.794299e-01 -3.264743e-02 -3.264743e-02 
3.500000e-01 0.000000e+00 0.000000e+00 8.248797e-01 8.248797e-01 -2.139832e-02 -2.139832e-02 
4.000000e-01 0.000000e+00 0.000000e+00 8.586923e-01 8.586923e-01 -7.474781e-03 -7.474781e-03 
4.500000e-01 0.000000e+00 0.000000e+00 8.451560e-01 8.451560e-01 7.687259e-03 7.687259e-03 
5.000000e-01 0.000000e+00 0.000000e+00 7.399724e-01 7.399724e-01 2.197719e-02 2.197719e-02 
5.500000e-01 0.000000e+00 0.000000e+00 5.156226e-01 5.156226e-01 3.126173e-02 3.126173e-02 
6.000000e-01 0.000000e+00 0.000000e+00 2.742055e-01 2.742055e-01 3.192790e-02 3.192790e-02 
6.500000e-01 0.000000e+00 0.000000e+00 1.406229e-01 1.406229e-01 2.578874e-02 2.578874e-02 
7.000000e-01 0.000000e+00 0.000000e+00 1.101985e-01 1.101985e-01 1.686918e-02 1.686918e-02 
7.500000e-01 0.000000e+00 0.000000e+00 1.731698e-01 1.731698e-01 6.971291e-03 6.971291e-03 
8.000000e-01 0.000000e+00 0.000000e+00 3.753568e-01 3.753568e-01 -3.535079e-03 -3.535079e-03 
8.500000e-01 0.000000e+00 0.000000e+00 6.711810e-01 6.711810e-01 -1.325130e-02 -1.325130e-02 
9.000000e-01 0.000000e+00 0.000000e+00 8.706867e-01 8.706867e-01 -2.011718e-02 -2.011718e-02 
9.500000e-01 0.000000e+00 0.000000e+00 9.430408e-01 9.430408e-01 -2.428499e-02 -2.428499e-02 
1.000000e+00 0.000000e+00 0.000000e+00 9.575296e-01 9.575296e-01 -2.744941e-02 -2.744941e-02 
0.000000e+00 5.000000e-02 0.000000e+00 9.595264e-01 9.595264e-01 -2.555934e-02 -2.555934e-02 
5.000000e-02 5.000000e-02 0.000000e+00 9.489798e-01 9.489798e-01 -2.837010e-02 -2.837010e-02 
1.000000e-01 5.000000e-02 0.000000e+00 9.190826e-01 9.190826e-01 -3.139506e-02 -3.139506e-02 
1.500000e-01 5.000000e-02 0.000000e+00 8.686381e-01 8.686381e-01 -3.390328e-02 -3.390328e-02 
2.000000e-01 5.000000e-02 0.000000e+00 8.158461e-01 8.158461e-01 -3.425956e-02 -3.425956e-02 
2.500000e-01 5.000000e-02 0.000000e+00 7.995771e-01 7.995771e-01 -3.077723e-02 -3.077723e-02 
3.000000e-01 5.000000e-02 0.000000e+00 8.341542e-01 8.341542e-01 -2.286672e-02 -2.286672e-02 
3.500000e-01 5.000000e-02 0.000000e+00 8.879917e-01 8.879917e-01 -1.135528e-02 -1.135528e-02 
4.000000e-01 5.000000e-02 0.000000e+00 9.233117e-01 9.233117e-01 2.351412e-03 2.351412e-03 
4.500000e-01 5.000000e-02 0.000000e+00 9.143270e-01 9.143270e-01 1.706741e-02 1.706741e-02 
5.000000e-01 5.000000e-02 0.000000e+00 8.156033e-01 8.156033e-01 3.086289e-02 3.086289e-02 
5.500000e-01 5.000000e-02 0.000000e+00 5.754573e-01 5.754573e-01 3.926720e-02 3.926720e-02 
6.000000e-01 5.000000e-02 0.000000e+00 2.954790e-01 2.954790e-01 3.813310e-02 3.813310e-02 
6.500000e-01 5.000000e-02 0.000000e+00 1.397509e-01 1.397509e-01 3.001954e-02 3.001954e-02 
7.000000e-01 5.000000e-02 0.000000e+00 1.027943e-01 1.027943e-01 1.990210e-02 1.990210e-02 
7.500000e-01 5.000000e-02 0.000000e+00 1.649136e-01 1.649136e-01 9.597297e-03 9.597297e-03 
8.000000e-01 5.000000e-02 0.000000e+00 3.741660e-01 3.741660e-01 -1.035016e-03 -1.035016e-03 
8.500000e-01 5.000000e-02 0.000000e+00 6.799236e-01 6.799236e-01 -1.105263e-02 -1.105263e-02 
9.000000e-01 5.000000e-02 0.000000e+00 8.790004e-01 8.790004e-01 -1.830654e-02 -1.830654e-02 
9.500000e-01 5.000000e-02 0.000000e+00 9.475282e-01 9.475282e-01 -2.263236e-02 -2.263236e-02 
1.000000e+00 5.000000e-02 0.000000e+00 9.595264e-01 9.595264e-01 -2.555934e-02 -2.555934e-02 
0.000000e+00 1.000000e-01 0.000000e+00 9.608512e-01 9.608512e-01 -2.220359e-02 -2.220359e-02 
5.000000e-02 1.000000e-01 0.000000e+00 9.470689e-01 9.470689e-01 -2.413466e-02 -2.413466e-02 
1.000000e-01 1.000000e-01 0.000000e+00 9.085594e-01 9.085594e-01 -2.566849e-02 -2.566849e-02 
1.500000e-01 1.000000e-01 0.000000e+00 8.423389e-01 8.423389e-01 -2.617675e-02 -2.617675e-02 
2.000000e-01 1.000000e-01 0.000000e+00 7.699846e-01 7.699846e-01 -2.449587e-02 -2.449587e-02 
2.500000e-01 1.000000e-01 0.000000e+00 7.372405e-01 7.372405e-01 -1.962687e-02 -1.962687e-02 
3.000000e-01 1.000000e-01 0.000000e+00 7.630208e-01 7.630208e-01 -1.137162e-02 -1.137162e-02 
3.500000e-01 1.000000e-01 0.000000e+00 8.155655e-01 8.155655e-01 -4.527069e-04 -4.527069e-04 
4.000000e-01 1.000000e-01 0.000000e+00 8.482839e-01 8.482839e-01 1.200063e-02 1.200063e-02 
4.500000e-01 1.000000e-01 0.000000e+00 8.230190e-01 8.230190e-01 2.482104e-02 2.482104e-02 
5.000000e-01 1.000000e-01 0.000000e+00 6.934931e-01 6.934931e-01 3.577254e-02 3.577254e-02 
5.500000e-01 1.000000e-01 0.000000e+00 4.499388e-01 4.499388e-01 4.069338e-02 4.069338e-02 
6.000000e-01 1.000000e-01 0.000000e+00 2.197012e-01 2.197012e-01 3.726682e-02 3.726682e-02 
6.500000e-01 1.000000e-01 0.000000e+00 1.036391e-01 1.036391e-01 2.880791e-02 2.880791e-02 
7.000000e-01 1.000000e-01 0.000000e+00 7.742189e-02 7.742189e-02 1.939777e-02 1.939777e-02 
7.500000e-01 1.000000e-01 0.000000e+00 1.338359e-01 1.338359e-01 1.026006e-02 1.026006e-02 
8.000000e-01 1.000000e-01 0.000000e+00 3.351130e-01 3.351130e-01 9.084156e-04 9.084156e-04 
8.500000e-01 1.000000e-01 0.000000e+00 6.548013e-01 6.548013e-01 -8.301013e-03 -8.301013e-03 
9.000000e-01 1.000000e-01 0.000000e+00 8.732808e-01 8.732808e-01 -1.537484e-02 -1.537484e-02 
9.500000e-01 1.000000e-01 0.000000e+00 9.485480e-01 9.485480e-01 -1.964214e-02 -1.964214e-02 
1.000000e+00 1.000000e-01 0.000000e+00 9.608512e-01 9.608512e-01 -2.220359e-02 -2.220359e-02 
0.000000e+00 1.500000e-01 0.000000e+00 9.612037e-01 9.612037e-01 -1.774539e-02 -1.774539e-02 
5.000000e-02 1.500000e-01 0.000000e+00 9.416993e-01 9.416993e-01 -1.880137e-02 -1.880137e-02 
1.000000e-01 1.500000e-01 0.000000e+00 8.849324e-01 8.849324e-01 -1.892485e-02 -1.892485e-02 
1.500000e-01 1.500000e-01 0.000000e+00 7.800477e-01 7.800477e-01 -1.767472e-02 -1.767472e-02 
2.000000e-01 1.500000e-01 0.000000e+00 6.517433e-01 6.517433e-01 -1.443223e-02 -1.443223e-02 
2.500000e-01 1.500000e-01 0.000000e+00 5.608967e-01 5.608967e-01 -8.888175e-03 -8.888175e-03 
3.000000e-01 1.500000e-01 0.000000e+00 5.402988e-01 5.402988e-01 -1.162336e-03 -1.162336e-03 
3.500000e-01 1.500000e-01 0.000000e+00 5.666696e-01 5.666696e-01 8.227693e-03 8.227693e-03 
4.000000e-01 1.500000e-01 0.000000e+00 5.849453e-01 5.849453e-01 1.837106e-02 1.837106e-02 
4.500000e-01 1.500000e-01 0.000000e+00 5.407514e-01 5.407514e-01 2.784760e-02 2.784760e-02 
5.000000e-01 1.500000e-01 0.000000e+00 4.109571e-01 4.109571e-01 3.431302e-02 3.431302e-02 
5.500000e-01 1.500000e-01 0.000000e+00 2.436390e-01 2.436390e-01 3.532393e-02 3.532393e-02 
6.000000e-01 1.500000e-01 0.000000e+00 1.209779e-01 1.209779e-01 3.099940e-02 3.099940e-02 
6.500000e-01 1.500000e-01 0.000000e+00 6.289370e-02 6.289370e-02 2.403545e-02 2.403545e-02 
7.000000e-01 1.500000e-01 0.000000e+00 5.238028e-02 5.238028e-02 1.676632e-02 1.676632e-02 
7.500000e-01 1.500000e-01 0.000000e+00 1.022010e-01 1.022010e-01 9.801608e-03 9.801608e-03 
8.000000e-01 1.500000e-01 0.000000e+00 2.865261e-01 2.865261e-01 2.561767e-03 2.561767e-03 
8.500000e-01 1.500000e-01 0.000000e+00 6.138033e-01 6.138033e-01 -5.089158e-03 -5.089158e-03 
9.000000e-01 1.500000e-01 0.000000e+00 8.593543e-01 8.593543e-01 -1.153603e-02 -1.153603e-02 
9.500000e-01 1.500000e-01 0.000000e+00 9.472971e-01 9.472971e-01 -1.558787e-02 -1.558787e-02 
1.000000e+00 1.500000e-01 0.000000e+00 9.612037e-01 9.612037e-01 -1.774539e-02 -1.774539e-02 
0.000000e+00 2.000000e-01 0.000000e+00 9.570384e-01 9.570384e-01 -1.269725e-02 -1.269725e-02 
5.000000e-02 2.000000e-01 0.000000e+00 9.265029e-01 9.265029e-01 -1.306494e-02 -1.306494e-02 
1.000000e-01 2.000000e-01 0.000000e+00 8.360542e-01 8.360542e-01 -1.213933e-02 -1.213933e-02 
1.500000e-01 2.000000e-01 0.000000e+00 6.675506e-01 6.675506e-01 -9.793752e-03 -9.793752e-03 
2.000000e-01 2.000000e-01 0.000000e+00 4.690362e-01 4.690362e-01 -5.995121e-03 -5.995121e-03 
2.500000e-01 2.000000e-01 0.000000e+00 3.263735e-01 3.263735e-01 -9.519952e-04 -9.519952e-04 
3.000000e-01 2.000000e-01 0.000000e+00 2.637535e-01 2.637535e-01 5.115587e-03 5.115587e-03 
3.500000e-01 2.000000e-01 0.000000e+00 2.527684e-01 2.527684e-01 1.192465e-02 1.192465e-02 
4.000000e-01 2.000000e-01 0.000000e+00 2.513193e-01 2.513193e-01 1.877875e-02 1.877875e-02 
4.500000e-01 2.000000e-01 0.000000e+00 2.236187e-01 2.236187e-01 2.439209e-02 2.439209e-02 
5.000000e-01 2.000000e-01 0.000000e+00 1.647169e-01 1.647169e-01 2.724857e-02 2.724857e-02 
5.500000e-01 2.000000e-01 0.000000e+00 1.017065e-01 1.017065e-01 2.662984e-02 2.662984e-02 
6.000000e-01 2.000000e-01 0.000000e+00 5.800850e-02 5.800850e-02 2.329366e-02 2.329366e-02 
6.500000e-01 2.000000e-01 0.000000e+00 3.667657e-02 3.667657e-02 1.873344e-02 1.873344e-02 
7.000000e-01 2.000000e-01 0.000000e+00 3.713701e-02 3.713701e-02 1.406932e-02 1.406932e-02 
7.500000e-01 2.000000e-01 0.000000e+00 8.216080e-02 8.216080e-02 9.547669e-03 9.547669e-03 
8.000000e-01 2.000000e-01 0.000000e+00 2.476003e-01 2.476003e-01 4.583226e-03 4.583226e-03 
8.500000e-01 2.000000e-01 0.000000e+00 5.692492e-01 5.692492e-01 -1.319459e-03 -1.319459e-03 
9.000000e-01 2.000000e-01 0.000000e+00 8.378921e-01 8.378921e-01 -7.002667e-03 -7.002667e-03 
9.500000e-01 2.000000e-01 0.000000e+00 9.412672e-01 9.412672e-01 -1.084444e-02 -1.084444e-02 
1.000000e+00 2.000000e-01 0.000000e+00 9.570384e-01 9.570384e-01 -1.269725e-02 -1.269725e-02 
0.000000e+00 2.500000e-01 0.000000e+00 9.362987e-01 9.362987e-01 -7.574780e-03 -7.574780e-03 
5.000000e-02 2.500000e-01 0.000000e+00 8.831274e-01 8.831274e-01 -7.611233e-03 -7.611233e-03 
1.000000e-01 2.500000e-01 0.000000e+00 7.372825e-01 7.372825e-01 -6.228997e-03 -6.228997e-03 
1.500000e-01 2.500000e-01 0.000000e+00 5.029441e-01 5.029441e-01 -3.719351e-03 -3.719351e-03 
2.000000e-01 2.500000e-01 0.000000e+00 2.837781e-01 2.837781e-01 -4.810972e-04 -4.810972e-04 
2.500000e-01 2.500000e-01 0.000000e+00 1.558039e-01 1.558039e-01 3.153724e-03 3.153724e-03 
3.000000e-01 2.500000e-01 0.000000e+00 1.015102e-01 1.015102e-01 7.071878e-03 7.071878e-03 
3.500000e-01 2.500000e-01 0.000000e+00 8.484619e-02 8.484619e-02 1.115845e-02 1.115845e-02 
4.000000e-01 2.500000e-01 0.000000e+00 8.078886e-02 8.078886e-02 1.500078e-02 1.500078e-02 
4.500000e-01 2.500000e-01 0.000000e+00 7.401613e-02 7.401613e-02 1.787660e-02 1.787660e-02 
5.000000e-01 2.500000e-01 0.000000e+00 6.038990e-02 6.038990e-02 1.915145e-02 1.915145e-02 
5.500000e-01 2.500000e-01 0.000000e+00 4.457911e-02 4.457911e-02 1.874350e-02 1.874350e-02 
6.000000e-01 2.500000e-01 0.000000e+00 3.221717e-02 3.221717e-02 1.713726e-02 1.713726e-02 
6.500000e-01 2.500000e-01 0.000000e+00 2.646709e-02 2.646709e-02 1.499671e-02 1.499671e-02 
7.000000e-01 2.500000e-01 0.000000e+00 3.307347e-02 3.307347e-02 1.278271e-02 1.278271e-02 
7.500000e-01 2.500000e-01 0.000000e+00 7.611719e-02 7.611719e-02 1.049695e-02 1.049695e-02 
8.000000e-01 2.500000e-01 0.000000e+00 2.236186e-01 2.236186e-01 7.516786e-03 7.516786e-03 
8.500000e-01 2.500000e-01 0.000000e+00 5.223458e-01 5.223458e-01 3.105718e-03 3.105718e-03 
9.000000e-01 2.500000e-01 0.000000e+00 8.003427e-01 8.003427e-01 -1.970029e-03 -1.970029e-03 
9.500000e-01 2.500000e-01 0.000000e+00 9.199919e-01 9.199919e-01 -5.781545e-03 -5.781545e-03 
1.000000e+00 2.500000e-01 0.000000e+00 9.362987e-01 9.362987e-01 -7.574780e-03 -7.574780e-03 
0.000000e+00 3.000000e-01 0.000000e+00 8.624222e-01 8.624222e-01 -2.852860e-03 -2.852860e-03 
5.000000e-02 3.000000e-01 0.000000e+00 7.662711e-01 7.662711e-01 -3.084523e-03 -3.084523e-03 
1.000000e-01 3.000000e-01 0.000000e+00 5.597548e-01 5.597548e-01 -1.993323e-03 -1.993323e-03 
1.500000e-01 3.000000e-01 0.000000e+00 3.190977e-01 3.190977e-01 -1.474840e-04 -1.474840e-04 
2.000000e-01 3.000000e-01 0.000000e+00 1.544177e-01 1.544177e-01 1.999058e-03 1.999058e-03 
2.500000e-01 3.000000e-01 0.000000e+00 7.563045e-02 7.563045e-02 4.197866e-03 4.197866e-03 
3.000000e-01 3.000000e-01 0.000000e+00 4.527766e-02 4.527766e-02 6.376179e-03 6.376179e-03 
3.500000e-01 3.000000e-01 0.000000e+00 3.754180e-02 3.754180e-02 8.493079e-03 8.493079e-03 
4.000000e-01 3.000000e-01 0.000000e+00 3.906669e-02 3.906669e-02 1.040821e-02 1.040821e-02 
4.500000e-01 3.000000e-01 0.000000e+00 4.217292e-02 4.217292e-02 1.191082e-02 1.191082e-02 
5.000000e-01 3.000000e-01 0.000000e+00 4.254287e-02 4.254287e-02 1.288567e-02 1.288567e-02 
5.500000e-01 3.000000e-01 0.000000e+00 3.943481e-02 3.943481e-02 1.340680e-02 1.340680e-02 
6.000000e-01 3.000000e-01 0.000000e+00 3.513428e-02 3.513428e-02 1.364593e-02 1.364593e-02 
6.500000e-01 3.000000e-01 0.000000e+00 3.377866e-02 3.377866e-02 1.372520e-02 1.372520e-02 
7.000000e-01 3.000000e-01 0.000000e+00 4.333466e-02 4.333466e-02 1.363241e-02 1.363241e-02 
7.500000e-01 3.000000e-01 0.000000e+00 8.591428e-02 8.591428e-02 1.311276e-02 1.311276e-02 
8.000000e-01 3.000000e-01 0.000000e+00 2.138523e-01 2.138523e-01 1.149269e-02 1.149269e-02 
8.500000e-01 3.000000e-01 0.000000e+00 4.656297e-01 4.656297e-01 8.013643e-03 8.013643e-03 
9.000000e-01 3.000000e-01 0.000000e+00 7.242342e-01 7.242342e-01 3.255877e-03 3.255877e-03 
9.500000e-01 3.000000e-01 0.000000e+00 8.533719e-01 8.533719e-01 -7.656928e-04 -7.656928e-04 
1.000000e+00 3.000000e-01 0.000000e+00 8.624222e-01 8.624222e-01 -2.852860e-03 -2.852860e-03 
0.000000e+00 3.500000e-01 0.000000e+00 6.690295e-01 6.690295e-01 8.145133e-04 8.145133e-04 
5.000000e-02 3.500000e-01 0.000000e+00 5.302815e-01 5.302815e-01 -2.044260e-04 -2.044260e-04 
1.000000e-01 3.500000e-01 0.000000e+00 3.310536e-01 3.310536e-01 6.057189e-06 6.057189e-06 
1.500000e-01 3.500000e-01 0.000000e+00 1.708765e-01 1.708765e-01 9.415262e-04 9.415262e-04 
2.000000e-01 3.500000e-01 0.000000e+00 8.412405e-02 8.412405e-02 2.188946e-03 2.188946e-03 
2.500000e-01 3.500000e-01 0.000000e+00 4.718668e-02 4.718668e-02 3.438943e-03 3.438943e-03 
3.000000e-01 3.500000e-01 0.000000e+00 3.733451e-02 3.733451e-02 4.548354e-03 4.548354e-03 
3.500000e-01 3.500000e-01 0.000000e+00 4.412011e-02 4.412011e-02 5.513280e-03 5.513280e-03 
4.000000e-01 3.500000e-01 0.000000e+00 6.237808e-02 6.237808e-02 6.410960e-03 6.410960e-03 
4.500000e-01 3.500000e-01 0.000000e+00 8.501898e-02 8.501898e-02 7.399907e-03 7.399907e-03 
5.000000e-01 3.500000e-01 0.000000e+00 1.010653e-01 1.010653e-01 8.716815e-03 8.716815e-03 
5.500000e-01 3.500000e-01 0.000000e+00 1.026736e-01 1.026736e-01 1.054727e-02 1.054727e-02 
6.000000e-01 3.500000e-01 0.000000e+00 9.257472e-02 9.257472e-02 1.280865e-02 1.280865e-02 
6.500000e-01 3.500000e-01 0.000000e+00 8.178592e-02 8.178592e-02 1.507958e-02 1.507958e-02 
7.000000e-01 3.500000e-01 0.000000e+00 8.428603e-02 8.428603e-02 1.677945e-02 1.677945e-02 
7.500000e-01 3.500000e-01 0.000000e+00 1.195618e-01 1.195618e-01 1.732817e-02 1.732817e-02 
8.000000e-01 3.500000e-01 0.000000e+00 2.181868e-01 2.181868e-01 1.611317e-02 1.611317e-02 
8.500000e-01 3.500000e-01 0.000000e+00 3.951174e-01 3.951174e-01 1.274891e-02 1.274891e-02 
9.000000e-01 3.500000e-01 0.000000e+00 5.853256e-01 5.853256e-01 7.963780e-03 7.963780e-03 
9.500000e-01 3.500000e-01 0.000000e+00 6.891016e-01 6.891016e-01 3.561871e-03 3.561871e-03 
1.000000e+00 3.500000e-01 0.000000e+00 6.690295e-01 6.690295e-01 8.145133e-04 8.145133e-04 
0.000000e+00 4.000000e-01 0.000000e+00 3.779224e-01 3.779224e-01 2.510099e-03 2.510099e-03 
5.000000e-02 4.000000e-01 0.000000e+00 2.623941e-01 2.623941e-01 5.038234e-04 5.038234e-04 
1.000000e-01 4.000000e-01 0.000000e+00 1.520472e-01 1.520472e-01 -1.322282e-04 -1.322282e-04 
1.500000e-01 4.000000e-01 0.000000e+00 8.388368e-02 8.388368e-02 1.976676e-04 1.976676e-04 
2.000000e-01 4.000000e-01 0.000000e+00 5.258495e-02 5.258495e-02 9.810178e-04 9.810178e-04 
2.500000e-01 4.000000e-01 0.000000e+00 4.604106e-02 4.604106e-02 1.774157e-03 1.774157e-03 
3.000000e-01 4.000000e-01 0.000000e+00 6.208172e-02 6.208172e-02 2.350387e-03 2.350387e-03 
3.500000e-01 4.000000e-01 0.000000e+00 1.068789e-01 1.068789e-01 2.726780e-03 2.726780e-03 
4.000000e-01 4.000000e-01 0.000000e+00 1.821790e-01 1.821790e-01 3.148015e-03 3.148015e-03 
4.500000e-01 4.000000e-01 0.000000e+00 2.663681e-01 2.663681e-01 4.060385e-03 4.060385e-03 
5.000000e-01 4.000000e-01 0.000000e+00 3.219394e-01 3.219394e-01 5.993272e-03 5.993272e-03 
5.500000e-01 4.000000e-01 0.000000e+00 3.284555e-01 3.284555e-01 9.294637e-03 9.294637e-03 
6.000000e-01 4.000000e-01 0.000000e+00 2.916698e-01 2.916698e-01 1.374680e-02 1.374680e-02 
6.500000e-01 4.000000e-01 0.000000e+00 2.356325e-01 2.356325e-01 1.831257e-02 1.831257e-02 
7.000000e-01 4.000000e-01 0.000000e+00 1.927594e-01 1.927594e-01 2.151701e-02 2.151701e-02 
7.500000e-01 4.000000e-01 0.000000e+00 1.883483e-01 1.883483e-01 2.230123e-02 2.230123e-02 
8.000000e-01 4.000000e-01 0.000000e+00 2.331171e-01 2.331171e-01 2.039865e-02 2.039865e-02 
8.500000e-01 4.000000e-01 0.000000e+00 3.176774e-01 3.176774e-01 1.625385e-02 1.625385e-02 
9.000000e-01 4.000000e-01 0.000000e+00 4.027999e-01 4.027999e-01 1.100085e-02 1.100085e-02 
9.500000e-01 4.000000e-01 0.000000e+00 4.333600e-01 4.333600e-01 6.088832e-03 6.088832e-03 
1.000000e+00 4.000000e-01 0.000000e+00 3.779224e-01 3.779224e-01 2.510099e-03 2.510099e-03 
0.000000e+00 4.500000e-01 0.000000e+00 1.631326e-01 1.631326e-01 1.981900e-03 1.981900e-03 
5.000000e-02 4.500000e-01 0.000000e+00 1.040901e-01 1.040901e-01 -5.869329e-04 -5.869329e-04 
1.000000e-01 4.500000e-01 0.000000e+00 6.321761e-02 6.321761e-02 -1.635287e-03 -1.635287e-03 
1.500000e-01 4.500000e-01 0.000000e+00 4.434448e-02 4.434448e-02 -1.559867e-03 -1.559867e-03 
2.000000e-01 4.500000e-01 0.000000e+00 4.392616e-02 4.392616e-02 -9.367549e-04 -9.367549e-04 
2.500000e-01 4.500000e-01 0.000000e+00 6.617560e-02 6.617560e-02 -2.845017e-04 -2.845017e-04 
3.000000e-01 4.500000e-01 0.000000e+00 1.311645e-01 1.311645e-01 1.065865e-04 1.065865e-04 
3.500000e-01 4.500000e-01 0.000000e+00 2.651393e-01 2.651393e-01 2.591073e-04 2.591073e-04 
4.000000e-01 4.500000e-01 0.000000e+00 4.493859e-01 4.493859e-01 5.443640e-04 5.443640e-04 
4.500000e-01 4.500000e-01 0.000000e+00 6.038550e-01 6.038550e-01 1.588083e-03 1.588083e-03 
5.000000e-01 4.500000e-01 0.000000e+00 6.816185e-01 6.816185e-01 4.043021e-03 4.043021e-03 
5.500000e-01 4.500000e-01 0.000000e+00 6.885238e-01 6.885238e-01 8.388133e-03 8.388133e-03 
6.000000e-01 4.500000e-01 0.000000e+00 6.322784e-01 6.322784e-01 1.454225e-02 1.454225e-02 
6.500000e-01 4.500000e-01 0.000000e+00 5.172127e-01 5.172127e-01 2.116747e-02 2.116747e-02 
7.000000e-01 4.500000e-01 0.000000e+00 3.793620e-01 3.793620e-01 2.568630e-02 2.568630e-02 
7.500000e-01 4.500000e-01 0.000000e+00 2.798822e-01 2.798822e-01 2.617319e-02 2.617319e-02 
8.000000e-01 4.500000e-01 0.000000e+00 2.415658e-01 2.415658e-01 2.292571e-02 2.292571e-02 
8.500000e-01 4.500000e-01 0.000000e+00 2.414196e-01 2.414196e-01 1.752562e-02 1.752562e-02 
9.000000e-01 4.500000e-01 0.000000e+00 2.428369e-01 2.428369e-01 1.154353e-02 1.154353e-02 
9.500000e-01 4.500000e-01 0.000000e+00 2.175445e-01 2.175445e-01 6.128217e-03 6.128217e-03 
1.000000e+00 4.500000e-01 0.000000e+00 1.631326e-01 1.631326e-01 1.981900e-03 1.981900e-03 
0.000000e+00 5.000000e-01 0.000000e+00 7.042168e-02 7.042168e-02 1.512651e-05 1.512651e-05 
5.000000e-02 5.000000e-01 0.000000e+00 4.352196e-02 4.352196e-02 -2.626373e-03 -2.626373e-03 
1.000000e-01 5.000000e-01 0.000000e+00 3.017273e-02 3.017273e-02 -3.762609e-03 -3.762609e-03 
1.500000e-01 5.000000e-01 0.000000e+00 3.056058e-02 3.056058e-02 -3.759058e-03 -3.759058e-03 
2.000000e-01 5.000000e-01 0.000000e+00 4.832845e-02 4.832845e-02 -3.161483e-03 -3.161483e-03 
2.500000e-01 5.000000e-01 0.000000e+00 1.038036e-01 1.038036e-01 -2.498783e-03 -2.498783e-03 
3.000000e-01 5.000000e-01 0.000000e+00 2.447153e-01 2.447153e-01 -2.103382e-03 -2.103382e-03 
3.500000e-01 5.000000e-01 0.000000e+00 4.908428e-01 4.908428e-01 -1.946784e-03 -1.946784e-03 
4.000000e-01 5.000000e-01 0.000000e+00 7.285801e-01 7.285801e-01 -1.569282e-03 -1.569282e-03 
4.500000e-01 5.000000e-01 0.000000e+00 8.579969e-01 8.579969e-01 -3.259947e-04 -3.259947e-04 
5.000000e-01 5.000000e-01 0.000000e+00 9.047532e-01 9.047532e-01 2.373051e-03 2.373051e-03 
5.500000e-01 5.000000e-01 0.000000e+00 9.063906e-01 9.063906e-01 7.029427e-03 7.029427e-03 
6.000000e-01 5.000000e-01 0.000000e+00 8.627322e-01 8.627322e-01 1.376230e-02 1.376230e-02 
6.500000e-01 5.000000e-01 0.000000e+00 7.413543e-01 7.413543e-01 2.138677e-02 2.138677e-02 
7.000000e-01 5.000000e-01 0.000000e+00 5.330030e-01 5.330030e-01 2.671012e-02 2.671012e-02 
7.500000e-01 5.000000e-01 0.000000e+00 3.310929e-01 3.310929e-01 2.680016e-02 2.680016e-02 
8.000000e-01 5.000000e-01 0.000000e+00 2.179811e-01 2.179811e-01 2.239566e-02 2.239566e-02 
8.500000e-01 5.000000e-01 0.000000e+00 1.695236e-01 1.695236e-01 1.610030e-02 1.610030e-02 
9.000000e-01 5.000000e-01 0.000000e+00 1.393233e-01 1.393233e-01 9.739929e-03 9.739929e-03 
9.500000e-01 5.000000e-01 0.000000e+00 1.057286e-01 1.057286e-01 4.217123e-03 4.217123e-03 
1.000000e+00 5.000000e-01 0.000000e+00 7.042168e-02 7.042168e-02 1.512651e-05 1.512651e-05 
0.000000e+00 5.500000e-01 0.000000e+00 3.815222e-02 3.815222e-02 -2.633003e-03 -2.633003e-03 
5.000000e-02 5.500000e-01 0.000000e+00 2.488884e-02 2.488884e-02 -5.095683e-03 -5.095683e-03 
1.000000e-01 5.500000e-01 0.000000e+00 2.104371e-02 2.104371e-02 -6.186396e-03 -6.186396e-03 
1.500000e-01 5.500000e-01 0.000000e+00 2.904420e-02 2.904420e-02 -6.189881e-03 -6.189881e-03 
2.000000e-01 5.500000e-01 0.000000e+00 5.835941e-02 5.835941e-02 -5.574938e-03 -5.574938e-03 
2.500000e-01 5.500000e-01 0.000000e+00 1.428791e-01 1.428791e-01 -4.850717e-03 -4.850717e-03 
3.000000e-01 5.500000e-01 0.000000e+00 3.466534e-01 3.466534e-01 -4.379164e-03 -4.379164e-03 
3.500000e-01 5.500000e-01 0.000000e+00 6.430311e-01 6.430311e-01 -4.127471e-03 -4.127471e-03 
4.000000e-01 5.500000e-01 0.000000e+00 8.544389e-01 8.544389e-01 -3.596628e-03 -3.596628e-03 
4.500000e-01 5.500000e-01 0.000000e+00 9.387878e-01 9.387878e-01 -2.201354e-03 -2.201354e-03 
5.000000e-01 5.500000e-01 0.000000e+00 9.610654e-01 9.610654e-01 5.571360e-04 5.571360e-04 
5.500000e-01 5.500000e-01 0.000000e+00 9.540582e-01 9.540582e-01 5.138695e-03 5.138695e-03 
6.000000e-01 5.500000e-01 0.000000e+00 9.069601e-01 9.069601e-01 1.167990e-02 1.167990e-02 
6.500000e-01 5.500000e-01 0.000000e+00 7.706926e-01 7.706926e-01 1.901464e-02 1.901464e-02 
7.000000e-01 5.500000e-01 0.000000e+00 5.224856e-01 5.224856e-01 2.384309e-02 2.384309e-02 
7.500000e-01 5.500000e-01 0.000000e+00 2.846579e-01 2.846579e-01 2.327036e-02 2.327036e-02 
8.000000e-01 5.500000e-01 0.000000e+00 1.587118e-01 1.587118e-01 1.849672e-02 1.849672e-02 
8.500000e-01 5.500000e-01 0.000000e+00 1.075567e-01 1.075567e-01 1.230471e-02 1.230471e-02 
9.000000e-01 5.500000e-01 0.000000e+00 8.067265e-02 8.067265e-02 6.327044e-03 6.327044e-03 
9.500000e-01 5.500000e-01 0.000000e+00 5.806715e-02 5.806715e-02 1.234705e-03 1.234705e-03 
1.000000e+00 5.500000e-01 0.000000e+00 3.815222e-02 3.815222e-02 -2.633003e-03 -2.633003e-03 
0.000000e+00 6.000000e-01 0.000000e+00 3.141570e-02 3.141570e-02 -5.647065e-03 -5.647065e-03 
5.000000e-02 6.000000e-01 0.000000e+00 2.498323e-02 2.498323e-02 -7.896665e-03 -7.896665e-03 
1.000000e-01 6.000000e-01 0.000000e+00 2.488598e-02 2.488598e-02 -8.946034e-03 -8.946034e-03 
1.500000e-01 6.000000e-01 0.000000e+00 3.563914e-02 3.563914e-02 -8.961612e-03 -8.961612e-03 
2.000000e-01 6.000000e-01 0.000000e+00 6.893379e-02 6.893379e-02 -8.318326e-03 -8.318326e-03 
2.500000e-01 6.000000e-01 0.000000e+00 1.594631e-01 1.594631e-01 -7.497790e-03 -7.497790e-03 
3.000000e-01 6.000000e-01 0.000000e+00 3.635446e-01 3.635446e-01 -6.894542e-03 -6.894542e-03 
3.500000e-01 6.000000e-01 0.000000e+00 6.427482e-01 6.427482e-01 -6.514305e-03 -6.514305e-03 
4.000000e-01 6.000000e-01 0.000000e+00 8.359252e-01 8.359252e-01 -5.877098e-03 -5.877098e-03 
4.500000e-01 6.000000e-01 0.000000e+00 9.101518e-01 9.101518e-01 -4.424912e-03 -4.424912e-03 
5.000000e-01 6.000000e-01 0.000000e+00 9.203214e-01 9.203214e-01 -1.699982e-03 -1.699982e-03 
5.500000e-01 6.000000e-01 0.000000e+00 8.890009e-01 8.890009e-01 2.672352e-03 2.672352e-03 
6.000000e-01 6.000000e-01 0.000000e+00 7.957310e-01 7.957310e-01 8.602718e-03 8.602718e-03 
6.500000e-01 6.000000e-01 0.000000e+00 6.034899e-01 6.034899e-01 1.461946e-02 1.461946e-02 
7.000000e-01 6.000000e-01 0.000000e+00 3.543062e-01 3.543062e-01 1.780295e-02 1.780295e-02 
7.500000e-01 6.000000e-01 0.000000e+00 1.745509e-01 1.745509e-01 1.657658e-02 1.657658e-02 
8.000000e-01 6.000000e-01 0.000000e+00 9.336782e-02 9.336782e-02 1.234974e-02 1.234974e-02 
8.500000e-01 6.000000e-01 0.000000e+00 6.364272e-02 6.364272e-02 7.145074e-03 7.145074e-03 
9.000000e-01 6.000000e-01 0.000000e+00 5.066376e-02 5.066376e-02 2.111196e-03 2.111196e-03 
9.500000e-01 6.000000e-01 0.000000e+00 4.075757e-02 4.075757e-02 -2.247011e-03 -2.247011e-03 
1.000000e+00 6.000000e-01 0.000000e+00 3.141570e-02 3.141570e-02 -5.647065e-03 -5.647065e-03 
0.000000e+00 6.500000e-01 0.000000e+00 5.061411e-02 5.061411e-02 -9.000207e-03 -9.000207e-03 
5.000000e-02 6.500000e-01 0.000000e+00 4.958712e-02 4.958712e-02 -1.118875e-02 -1.118875e-02 
1.000000e-01 6.500000e-01 0.000000e+00 4.907829e-02 4.907829e-02 -1.233534e-02 -1.233534e-02 
1.500000e-01 6.500000e-01 0.000000e+00 5.602616e-02 5.602616e-02 -1.243606e-02 -1.243606e-02 
2.000000e-01 6.500000e-01 0.000000e+00 8.164758e-02 8.164758e-02 -1.175059e-02 -1.175059e-02 
2.500000e-01 6.500000e-01 0.000000e+00 1.486670e-01 1.486670e-01 -1.073394e-02 -1.073394e-02 
3.000000e-01 6.500000e-01 0.000000e+00 2.898062e-01 2.898062e-01 -9.833175e-03 -9.833175e-03 
3.500000e-01 6.500000e-01 0.000000e+00 4.930275e-01 4.930275e-01 -9.179250e-03 -9.179250e-03 
4.000000e-01 6.500000e-01 0.000000e+00 6.626968e-01 6.626968e-01 -8.413404e-03 -8.413404e-03 
4.500000e-01 6.500000e-01 0.000000e+00 7.377256e-01 7.377256e-01 -6.964029e-03 -6.964029e-03 
5.000000e-01 6.500000e-01 0.000000e+00 7.304599e-01 7.304599e-01 -4.349515e-03 -4.349515e-03 
5.500000e-01 6.500000e-01 0.000000e+00 6.536132e-01 6.536132e-01 -3.513923e-04 -3.513923e-04 
6.000000e-01 6.500000e-01 0.000000e+00 5.063177e-01 5.063177e-01 4.536886e-03 4.536886e-03 
6.500000e-01 6.500000e-01 0.000000e+00 3.191174e-01 3.191174e-01 8.711059e-03 8.711059e-03 
7.000000e-01 6.500000e-01 0.000000e+00 1.655268e-01 1.655268e-01 1.033784e-02 1.033784e-02 
7.500000e-01 6.500000e-01 0.000000e+00 8.201632e-02 8.201632e-02 9.022550e-03 9.022550e-03 
8.000000e-01 6.500000e-01 0.000000e+00 4.921198e-02 4.921198e-02 5.763505e-03 5.763505e-03 
8.500000e-01 6.500000e-01 0.000000e+00 4.135301e-02 4.135301e-02 1.739203e-03 1.739203e-03 
9.000000e-01 6.500000e-01 0.000000e+00 4.373937e-02 4.373937e-02 -2.297039e-03 -2.297039e-03 
9.500000e-01 6.500000e-01 0.000000e+00 4.841480e-02 4.841480e-02 -5.958213e-03 -5.958213e-03 
1.000000e+00 6.500000e-01 0.000000e+00 5.061411e-02 5.061411e-02 -9.000207e-03 -9.000207e-03 
0.000000e+00 7.000000e-01 0.000000e+00 1.351681e-01 1.351681e-01 -1.276814e-02 -1.276814e-02 
5.000000e-02 7.000000e-01 0.000000e+00 1.428458e-01 1.428458e-01 -1.520284e-02 -1.520284e-02 
1.000000e-01 7.000000e-01 0.000000e+00 1.289801e-01 1.289801e-01 -1.674677e-02 -1.674677e-02 
1.500000e-01 7.000000e-01 0.000000e+00 1.116016e-01 1.116016e-01 -1.710692e-02 -1.710692e-02 
2.000000e-01 7.000000e-01 0.000000e+00 1.086257e-01 1.086257e-01 -1.636064e-02 -1.636064e-02 
2.500000e-01 7.000000e-01 0.000000e+00 1.318151e-01 1.318151e-01 -1.495377e-02 -1.495377e-02 
3.000000e-01 7.000000e-01 0.000000e+00 1.894699e-01 1.894699e-01 -1.343922e-02 -1.343922e-02 
3.500000e-01 7.000000e-01 0.000000e+00 2.772468e-01 2.772468e-01 -1.214237e-02 -1.214237e-02 
4.000000e-01 7.000000e-01 0.000000e+00 3.622344e-01 3.622344e-01 -1.092751e-02 -1.092751e-02 
4.500000e-01 7.000000e-01 0.000000e+00 4.010725e-01 4.010725e-01 -9.290248e-03 -9.290248e-03 
5.000000e-01 7.000000e-01 0.000000e+00 3.767284e-01 3.767284e-01 -6.750902e-03 -6.750902e-03 
5.500000e-01 7.000000e-01 0.000000e+00 3.002307e-01 3.002307e-01 -3.285013e-03 -3.285013e-03 
6.000000e-01 7.000000e-01 0.000000e+00 2.007272e-01 2.007272e-01 3.941799e-04 3.941799e-04 
6.500000e-01 7.000000e-01 0.000000e+00 1.142508e-01 1.142508e-01 3.067051e-03 3.067051e-03 
7.000000e-01 7.000000e-01 0.000000e+00 6.021975e-02 6.021975e-02 3.824774e-03 3.824774e-03 
7.500000e-01 7.000000e-01 0.000000e+00 3.541877e-02 3.541877e-02 2.618386e-03 2.618386e-03 
8.000000e-01 7.000000e-01 0.000000e+00 3.085735e-02 3.085735e-02 3.192815e-05 3.192815e-05 
8.500000e-01 7.000000e-01 0.000000e+00 4.221174e-02 4.221174e-02 -3.214120e-03 -3.214120e-03 
9.000000e-01 7.000000e-01 0.000000e+00 6.864075e-02 6.864075e-02 -6.588381e-03 -6.588381e-03 
9.500000e-01 7.000000e-01 0.000000e+00 1.048606e-01 1.048606e-01 -9.820358e-03 -9.820358e-03 
1.000000e+00 7.000000e-01 0.000000e+00 1.351681e-01 1.351681e-01 -1.276814e-02 -1.276814e-02 
0.000000e+00 7.500000e-01 0.000000e+00 3.587240e-01 3.587240e-01 -1.687408e-02 -1.687408e-02 
5.000000e-02 7.500000e-01 0.000000e+00 3.781773e-01 3.781773e-01 -1.986401e-02 -1.986401e-02 
1.000000e-01 7.500000e-01 0.000000e+00 3.245913e-01 3.245913e-01 -2.225034e-02 -2.225034e-02 
1.500000e-01 7.500000e-01 0.000000e+00 2.398680e-01 2.398680e-01 -2.325507e-02 -2.325507e-02 
2.000000e-01 7.500000e-01 0.000000e+00 1.710959e-01 1.710959e-01 -2.254326e-02 -2.254326e-02 
2.500000e-01 7.500000e-01 0.000000e+00 1.353061e-01 1.353061e-01 -2.054499e-02 -2.054499e-02 