TITLE ="t=127.103639" 
VARIABLES = "x"                 "phi" 
ZONE I=201, ZONETYPE=Ordered, DATAPACKING=POINT
0.000000e+00  1.016564225566340e+00 
5.000000e-03  9.243661696310709e-01 
1.000000e-02  8.056593626310893e-01 
1.500000e-02  6.583342962046351e-01 
2.000000e-02  4.970878603150607e-01 
2.500000e-02  3.382117938280404e-01 
3.000000e-02  1.977557529841482e-01 
3.500000e-02  8.973520612598533e-02 
4.000000e-02  2.441158051622543e-02 
4.500000e-02  4.739586983012024e-03 
5.000000e-02  4.699924962059058e-03 
5.500000e-02  4.621872789521276e-03 
6.000000e-02  5.487580824016924e-03 
6.500000e-02  3.033493758708009e-02 
7.000000e-02  9.940843442671166e-02 
7.500000e-02  2.083218365455237e-01 
8.000000e-02  3.465886904250280e-01 
8.500000e-02  5.003664603728288e-01 
9.000000e-02  6.540989669427374e-01 
9.500000e-02  7.922367097019951e-01 
1.000000e-01  9.009576611404839e-01 
1.050000e-01  9.698136582735997e-01 
1.100000e-01  9.945040044807776e-01 
1.150000e-01  9.953449847384515e-01 
1.200000e-01  9.952260197469917e-01 
1.250000e-01  9.952506537026011e-01 
1.300000e-01  9.952074258117312e-01 
1.350000e-01  9.954554944466025e-01 
1.400000e-01  9.810841137209029e-01 
1.450000e-01  9.239981049455619e-01 
1.500000e-01  8.250646543626746e-01 
1.550000e-01  6.935114576045764e-01 
1.600000e-01  5.424183327801514e-01 
1.650000e-01  3.870391124827458e-01 
1.700000e-01  2.430995211144184e-01 
1.750000e-01  1.250626122605388e-01 
1.800000e-01  4.446789550697863e-02 
1.850000e-01  7.875260985366953e-03 
1.900000e-01  4.514936233161378e-03 
1.950000e-01  4.497214665441215e-03 
2.000000e-01  1.620156044470407e-02 
2.050000e-01  6.974283800959122e-02 
2.100000e-01  1.656401783915308e-01 
2.150000e-01  2.950657475712017e-01 
2.200000e-01  4.451802144445335e-01 
2.250000e-01  6.008380422851488e-01 
2.300000e-01  7.462832114819360e-01 
2.350000e-01  8.668862597341694e-01 
2.400000e-01  9.508125500048407e-01 
2.450000e-01  9.909630892319913e-01 
2.500000e-01  9.956062601481771e-01 
2.550000e-01  9.951326339674321e-01 
2.600000e-01  9.955611430553784e-01 
2.650000e-01  9.831166534929228e-01 
2.700000e-01  9.286169984122702e-01 
2.750000e-01  8.318934546369733e-01 
2.800000e-01  7.018834269027862e-01 
2.850000e-01  5.514922942580570e-01 
2.900000e-01  3.958961825708143e-01 
2.950000e-01  2.508444173339280e-01 
3.000000e-01  1.309230311593183e-01 
3.050000e-01  4.788853073321123e-02 
3.100000e-01  8.699047895123926e-03 
3.150000e-01  4.415908079055608e-03 
3.200000e-01  4.814565794958162e-03 
3.250000e-01  4.744428973506299e-03 
3.300000e-01  4.783760530848885e-03 
3.350000e-01  4.600274154686512e-03 
3.400000e-01  5.993974248013558e-03 
3.450000e-01  3.401208622913869e-02 
3.500000e-01  1.062548708707382e-01 
3.550000e-01  2.176901827247062e-01 
3.600000e-01  3.575483404653907e-01 
3.650000e-01  5.118185552842879e-01 
3.700000e-01  6.648961634340189e-01 
3.750000e-01  8.013077678119396e-01 
3.800000e-01  9.074271662030547e-01 
3.850000e-01  9.731231303163450e-01 
3.900000e-01  9.948572531633435e-01 
3.950000e-01  9.952984509442194e-01 
4.000000e-01  9.952334842916764e-01 
4.050000e-01  9.952437390362120e-01 
4.100000e-01  9.952421584291130e-01 
4.150000e-01  9.952424243037250e-01 
4.200000e-01  9.952424004623428e-01 
4.250000e-01  9.952424300622693e-01 
4.300000e-01  9.952423988476168e-01 
4.350000e-01  9.952427130524102e-01 
4.400000e-01  9.952408220529463e-01 
4.450000e-01  9.952530293827212e-01 
4.500000e-01  9.951741592288468e-01 
4.550000e-01  9.956474491140391e-01 
4.600000e-01  9.881330732231446e-01 
4.650000e-01  9.415230963296713e-01 
4.700000e-01  8.517149459868795e-01 
4.750000e-01  7.266903439097651e-01 
4.800000e-01  5.787887989226853e-01 
4.850000e-01  4.229110311038940e-01 
4.900000e-01  2.748368356507666e-01 
4.950000e-01  1.494860131721463e-01 
5.000000e-01  5.923520493549006e-02 
5.050000e-01  1.212974307574978e-02 
5.100000e-01  4.352402649242255e-03 
5.150000e-01  4.825844974460551e-03 
5.200000e-01  4.746909072186813e-03 
5.250000e-01  4.759088510077543e-03 
5.300000e-01  4.757163602050773e-03 
5.350000e-01  4.757445200280613e-03 
5.400000e-01  4.757379189032579e-03 
5.450000e-01  4.757386976173134e-03 
5.500000e-01  4.757258378869014e-03 
5.550000e-01  4.757950509104449e-03 
5.600000e-01  4.753399144578409e-03 
5.650000e-01  4.782527270723520e-03 
5.700000e-01  4.600480790686432e-03 
5.750000e-01  5.994809009367681e-03 
5.800000e-01  3.401794846219954e-02 
5.850000e-01  1.062656874237891e-01 
5.900000e-01  2.177049495639912e-01 
5.950000e-01  3.575656151568252e-01 
6.000000e-01  5.118366281522676e-01 
6.050000e-01  6.649132404351368e-01 
6.100000e-01  8.013221613009500e-01 
6.150000e-01  9.074374765220402e-01 
6.200000e-01  9.731284252531830e-01 
6.250000e-01  9.948578155959156e-01 
6.300000e-01  9.952984545020620e-01 
6.350000e-01  9.952335848734080e-01 
6.400000e-01  9.952441455444476e-01 
6.450000e-01  9.952409173871144e-01 
6.500000e-01  9.952521219766759e-01 
6.550000e-01  9.951817984999235e-01 
6.600000e-01  9.956067756955788e-01 
6.650000e-01  9.906757363614149e-01 
6.700000e-01  9.497388115194448e-01 
6.750000e-01  8.650843040620290e-01 
6.800000e-01  7.439246689807594e-01 
6.850000e-01  5.981583195057688e-01 
6.900000e-01  4.424501745113156e-01 
6.950000e-01  2.925616725834088e-01 
7.000000e-01  1.636132614475082e-01 
7.050000e-01  6.839005887248968e-02 
7.100000e-01  1.562853422540777e-02 
7.150000e-01  4.408988934239564e-03 
7.200000e-01  4.815953983726491e-03 
7.250000e-01  4.748669368887552e-03 
7.300000e-01  4.759024052270849e-03 
7.350000e-01  4.757197332499605e-03 
7.400000e-01  4.758224933983765e-03 
7.450000e-01  4.752730921009891e-03 
7.500000e-01  4.787312185137622e-03 
7.550000e-01  4.571859754777366e-03 
7.600000e-01  6.287791160564225e-03 
7.650000e-01  3.598585359258332e-02 
7.700000e-01  1.099074677341537e-01 
7.750000e-01  2.226864360121150e-01 
7.800000e-01  3.633947213073053e-01 
7.850000e-01  5.179271061724768e-01 
7.900000e-01  6.706502272076181e-01 
7.950000e-01  8.061298653745246e-01 
8.000000e-01  9.108442895699101e-01 
8.050000e-01  9.748348072418225e-01 
8.100000e-01  9.950162228909195e-01 
8.150000e-01  9.952760483550012e-01 
8.200000e-01  9.952368065034383e-01 
8.250000e-01  9.952431130168760e-01 
8.300000e-01  9.952410240795607e-01 
8.350000e-01  9.952482463969778e-01 
8.400000e-01  9.952025056553270e-01 
8.450000e-01  9.954840905668757e-01 
8.500000e-01  9.816610936559703e-01 
8.550000e-01  9.252891855862747e-01 
8.600000e-01  8.269640323331130e-01 
8.650000e-01  6.958339524655225e-01 
8.700000e-01  5.449309134625149e-01 
8.750000e-01  3.894876871944706e-01 
8.800000e-01  2.452369758675430e-01 
8.850000e-01  1.266762931939872e-01 
8.900000e-01  4.540570219145829e-02 
8.950000e-01  8.098280957808473e-03 
9.000000e-01  4.443902281997611e-03 
9.050000e-01  4.808956802218641e-03 
9.100000e-01  4.749630615452946e-03 
9.150000e-01  4.755282177164430e-03 
9.200000e-01  4.777571281411246e-03 
9.250000e-01  4.629200240820762e-03 
9.300000e-01  5.726641025233747e-03 
9.350000e-01  3.203906967886130e-02 
9.400000e-01  1.025504382480819e-01 
9.450000e-01  2.125915270236102e-01 
9.500000e-01  3.515581686682235e-01 
9.550000e-01  5.055388003148181e-01 
9.600000e-01  6.589605500236787e-01 
9.650000e-01  7.963120612413006e-01 
9.700000e-01  9.038619948653155e-01 
9.750000e-01  9.713052489474649e-01 
9.800000e-01  9.946698615462946e-01 
9.850000e-01  9.953232300271780e-01 
9.900000e-01  9.952295941863439e-01 
9.950000e-01  9.952444600146174e-01 
1.000000e+00  9.952417909914887e-01 
