TITLE ="t=0.022108" 
VARIABLES = "x"                 "phi" 
ZONE I=201, ZONETYPE=Ordered, DATAPACKING=POINT
0.000000e+00  1.016978329061540e+00 
5.000000e-03  9.088465125414572e-01 
1.000000e-02  8.057206190641104e-01 
1.500000e-02  7.016752383559397e-01 
2.000000e-02  5.967337506087937e-01 
2.500000e-02  4.964188657350391e-01 
3.000000e-02  4.083569400888025e-01 
3.500000e-02  3.392949675492064e-01 
4.000000e-02  2.934927037441826e-01 
4.500000e-02  2.721995464158518e-01 
5.000000e-02  2.738993648166512e-01 
5.500000e-02  2.949981449397708e-01 
6.000000e-02  3.306215798279476e-01 
6.500000e-02  3.753168621925111e-01 
7.000000e-02  4.236240303585385e-01 
7.500000e-02  4.705508264216696e-01 
8.000000e-02  5.119638290245236e-01 
8.500000e-02  5.448741977531292e-01 
9.000000e-02  5.675853379146308e-01 
9.500000e-02  5.796838689905379e-01 
1.000000e-01  5.818840943971095e-01 
1.050000e-01  5.757648477498569e-01 
1.100000e-01  5.634525737771965e-01 
1.150000e-01  5.473018447395935e-01 
1.200000e-01  5.296111428349810e-01 
1.250000e-01  5.123971990930360e-01 
1.300000e-01  4.972400141305761e-01 
1.350000e-01  4.852022930349969e-01 
1.400000e-01  4.768195333098711e-01 
1.450000e-01  4.721499264828172e-01 
1.500000e-01  4.708675965236080e-01 
1.550000e-01  4.723798395224308e-01 
1.600000e-01  4.759494869345257e-01 
1.650000e-01  4.808067313256666e-01 
1.700000e-01  4.862395247826847e-01 
1.750000e-01  4.916567762719062e-01 
1.800000e-01  4.966231874431813e-01 
1.850000e-01  5.008682171008206e-01 
1.900000e-01  5.042741576365845e-01 
1.950000e-01  5.068496115640001e-01 
2.000000e-01  5.086948718846757e-01 
2.050000e-01  5.099650521548078e-01 
2.100000e-01  5.108355806446678e-01 
2.150000e-01  5.114731933212985e-01 
2.200000e-01  5.120141200539933e-01 
2.250000e-01  5.125499610562463e-01 
2.300000e-01  5.131208975600631e-01 
2.350000e-01  5.137153785473307e-01 
2.400000e-01  5.142752099965107e-01 
2.450000e-01  5.147049423653265e-01 
2.500000e-01  5.148844981237071e-01 
2.550000e-01  5.146840173447418e-01 
2.600000e-01  5.139798769835077e-01 
2.650000e-01  5.126707536332804e-01 
2.700000e-01  5.106924842204268e-01 
2.750000e-01  5.080303939222527e-01 
2.800000e-01  5.047277727449559e-01 
2.850000e-01  5.008893471795787e-01 
2.900000e-01  4.966789385945547e-01 
2.950000e-01  4.923110149240523e-01 
3.000000e-01  4.880364770341009e-01 
3.050000e-01  4.841236951406902e-01 
3.100000e-01  4.808364272605716e-01 
3.150000e-01  4.784107167931732e-01 
3.200000e-01  4.770331051290130e-01 
3.250000e-01  4.768224641389344e-01 
3.300000e-01  4.778174461765359e-01 
3.350000e-01  4.799709966283855e-01 
3.400000e-01  4.831526392587713e-01 
3.450000e-01  4.871584148695277e-01 
3.500000e-01  4.917275295249261e-01 
3.550000e-01  4.965640506546119e-01 
3.600000e-01  5.013614658656212e-01 
3.650000e-01  5.058276533978295e-01 
3.700000e-01  5.097078336405420e-01 
3.750000e-01  5.128033678444293e-01 
3.800000e-01  5.149847955202517e-01 
3.850000e-01  5.161981789274572e-01 
3.900000e-01  5.164645581977725e-01 
3.950000e-01  5.158730202546087e-01 
4.000000e-01  5.145684692449610e-01 
4.050000e-01  5.127356005983730e-01 
4.100000e-01  5.105807985975217e-01 
4.150000e-01  5.083136993647479e-01 
4.200000e-01  5.061300108142026e-01 
4.250000e-01  5.041968978143638e-01 
4.300000e-01  5.026418731435873e-01 
4.350000e-01  5.015457336653478e-01 
4.400000e-01  5.009396929896345e-01 
4.450000e-01  5.008065231198422e-01 
4.500000e-01  5.010852507593325e-01 
4.550000e-01  5.016787668726864e-01 
4.600000e-01  5.024635959616343e-01 
4.650000e-01  5.033010213422975e-01 
4.700000e-01  5.040487586573765e-01 
4.750000e-01  5.045723979777588e-01 
4.800000e-01  5.047558862352138e-01 
4.850000e-01  5.045103936225507e-01 
4.900000e-01  5.037810025625888e-01 
4.950000e-01  5.025507814089317e-01 
5.000000e-01  5.008419623682776e-01 
5.050000e-01  4.987141354385554e-01 
5.100000e-01  4.962595916303263e-01 
5.150000e-01  4.935961848589978e-01 
5.200000e-01  4.908583097811562e-01 
5.250000e-01  4.881867839154655e-01 
5.300000e-01  4.857185469592724e-01 
5.350000e-01  4.835771232158951e-01 
5.400000e-01  4.818647196040434e-01 
5.450000e-01  4.806566513777422e-01 
5.500000e-01  4.799985163477680e-01 
5.550000e-01  4.799062074091679e-01 
5.600000e-01  4.803685055598605e-01 
5.650000e-01  4.813516799347048e-01 
5.700000e-01  4.828052843989855e-01 
5.750000e-01  4.846682192371239e-01 
5.800000e-01  4.868741428994349e-01 
5.850000e-01  4.893554740950269e-01 
5.900000e-01  4.920454989833986e-01 
5.950000e-01  4.948784528556116e-01 
6.000000e-01  4.977878274340238e-01 
6.050000e-01  5.007035041413841e-01 
6.100000e-01  5.035485732372298e-01 
6.150000e-01  5.062368229578127e-01 
6.200000e-01  5.086718452553587e-01 
6.250000e-01  5.107485029832513e-01 
6.300000e-01  5.123571602484793e-01 
6.350000e-01  5.133906385886157e-01 
6.400000e-01  5.137533885906355e-01 
6.450000e-01  5.133719295308163e-01 
6.500000e-01  5.122052768530029e-01 
6.550000e-01  5.102539056635584e-01 
6.600000e-01  5.075658246868338e-01 
6.650000e-01  5.042385695210367e-01 
6.700000e-01  5.004163470049534e-01 
6.750000e-01  4.962821257576870e-01 
6.800000e-01  4.920451002340024e-01 
6.850000e-01  4.879245726851576e-01 
6.900000e-01  4.841318143812305e-01 
6.950000e-01  4.808518114114735e-01 
7.000000e-01  4.782269206420789e-01 
7.050000e-01  4.763443361138412e-01 
7.100000e-01  4.752289046346862e-01 
7.150000e-01  4.748422704341265e-01 
7.200000e-01  4.750886358398416e-01 
7.250000e-01  4.758266780608478e-01 
7.300000e-01  4.768864484847008e-01 
7.350000e-01  4.780894843600105e-01 
7.400000e-01  4.792699542087578e-01 
7.450000e-01  4.802944874395372e-01 
7.500000e-01  4.810784282906638e-01 
7.550000e-01  4.815965980999038e-01 
7.600000e-01  4.818872132680310e-01 
7.650000e-01  4.820483299870645e-01 
7.700000e-01  4.822269938501953e-01 
7.750000e-01  4.826020766584191e-01 
7.800000e-01  4.833624981877590e-01 
7.850000e-01  4.846830808138224e-01 
7.900000e-01  4.867006099373415e-01 
7.950000e-01  4.894927354499315e-01 
8.000000e-01  4.930621366987977e-01 
8.050000e-01  4.973279001302681e-01 
8.100000e-01  5.021253664926921e-01 
8.150000e-01  5.072148593930651e-01 
8.200000e-01  5.122987948136324e-01 
8.250000e-01  5.170457880008464e-01 
8.300000e-01  5.211196144824268e-01 
8.350000e-01  5.242103263699907e-01 
8.400000e-01  5.260645302750320e-01 
8.450000e-01  5.265118273108375e-01 
8.500000e-01  5.254846991710554e-01 
8.550000e-01  5.230296737362683e-01 
8.600000e-01  5.193083757482987e-01 
8.650000e-01  5.145880012635045e-01 
8.700000e-01  5.092217690996191e-01 
8.750000e-01  5.036209021757238e-01 
8.800000e-01  4.982205712181919e-01 
8.850000e-01  4.934428918553875e-01 
8.900000e-01  4.896604237185185e-01 
8.950000e-01  4.871636319488652e-01 
9.000000e-01  4.861354344786411e-01 
9.050000e-01  4.866353093353083e-01 
9.100000e-01  4.885945426606674e-01 
9.150000e-01  4.918231476114833e-01 
9.200000e-01  4.960278748034141e-01 
9.250000e-01  5.008396686619728e-01 
9.300000e-01  5.058480021638145e-01 
9.350000e-01  5.106388381684559e-01 
9.400000e-01  5.148325937948948e-01 
9.450000e-01  5.181184702733876e-01 
9.500000e-01  5.202818609373219e-01 
9.550000e-01  5.212222297278681e-01 
9.600000e-01  5.209597904003163e-01 
9.650000e-01  5.196304151118901e-01 
9.700000e-01  5.174693496059760e-01 
9.750000e-01  5.147853989746367e-01 
9.800000e-01  5.119281696490102e-01 
9.850000e-01  5.092516226836999e-01 
9.900000e-01  5.070775463792079e-01 
9.950000e-01  5.056625577397198e-01 
1.000000e+00  5.051718906889797e-01 
