TITLE ="t=0.000163" 
VARIABLES = "x"                 "phi" 
ZONE I=201, ZONETYPE=Ordered, DATAPACKING=POINT
0.000000e+00  7.863817976193157e-01 
5.000000e-03  5.707462051836484e-01 
1.000000e-02  4.388429940693048e-01 
1.500000e-02  4.321749282990927e-01 
2.000000e-02  4.678135228576499e-01 
2.500000e-02  5.019893449120720e-01 
3.000000e-02  5.176728081633428e-01 
3.500000e-02  5.182302330789416e-01 
4.000000e-02  5.143092758644852e-01 
4.500000e-02  5.113028269541452e-01 
5.000000e-02  5.074363515147904e-01 
5.500000e-02  4.992194948724599e-01 
6.000000e-02  4.872111235939127e-01 
6.500000e-02  4.769832664899847e-01 
7.000000e-02  4.752065088780278e-01 
7.500000e-02  4.846437482881384e-01 
8.000000e-02  5.020316250671046e-01 
8.500000e-02  5.200779095375599e-01 
9.000000e-02  5.316991315567005e-01 
9.500000e-02  5.334833022334621e-01 
1.000000e-01  5.264935557113644e-01 
1.050000e-01  5.146443685506569e-01 
1.100000e-01  5.023301372865677e-01 
1.150000e-01  4.928592020169246e-01 
1.200000e-01  4.880631421122615e-01 
1.250000e-01  4.884547209047144e-01 
1.300000e-01  4.932555740436989e-01 
1.350000e-01  5.002889095114889e-01 
1.400000e-01  5.063011491349574e-01 
1.450000e-01  5.081062749584884e-01 
1.500000e-01  5.041767804213381e-01 
1.550000e-01  4.956810070658546e-01 
1.600000e-01  4.861359990145737e-01 
1.650000e-01  4.797440724710152e-01 
1.700000e-01  4.793765149503060e-01 
1.750000e-01  4.853488885368299e-01 
1.800000e-01  4.955242716701200e-01 
1.850000e-01  5.064388259985564e-01 
1.900000e-01  5.147194254210333e-01 
1.950000e-01  5.182095547517735e-01 
2.000000e-01  5.165694525349757e-01 
2.050000e-01  5.112956767235134e-01 
2.100000e-01  5.051190752191270e-01 
2.150000e-01  5.008519548798848e-01 
2.200000e-01  5.000829285579887e-01 
2.250000e-01  5.024192313024228e-01 
2.300000e-01  5.058543412389950e-01 
2.350000e-01  5.081735409892171e-01 
2.400000e-01  5.084996108055867e-01 
2.450000e-01  5.078073737875419e-01 
2.500000e-01  5.078982383125068e-01 
2.550000e-01  5.095763434366372e-01 
2.600000e-01  5.116040982484887e-01 
2.650000e-01  5.115512255829613e-01 
2.700000e-01  5.080309868513159e-01 
2.750000e-01  5.023700223451336e-01 
2.800000e-01  4.979675138789483e-01 
2.850000e-01  4.975821833387888e-01 
2.900000e-01  5.008409770536424e-01 
2.950000e-01  5.043205001534402e-01 
3.000000e-01  5.042904912265378e-01 
3.050000e-01  4.996746037864775e-01 
3.100000e-01  4.925300924586580e-01 
3.150000e-01  4.857727070567531e-01 
3.200000e-01  4.806018376372392e-01 
3.250000e-01  4.762921250733802e-01 
3.300000e-01  4.724227354763499e-01 
3.350000e-01  4.708794823507062e-01 
3.400000e-01  4.750240602511849e-01 
3.450000e-01  4.863701575347461e-01 
3.500000e-01  5.019659172568082e-01 
3.550000e-01  5.154026959204150e-01 
3.600000e-01  5.210574658979251e-01 
3.650000e-01  5.180648414326028e-01 
3.700000e-01  5.106103620015068e-01 
3.750000e-01  5.043962523049933e-01 
3.800000e-01  5.024588586462380e-01 
3.850000e-01  5.037850116684287e-01 
3.900000e-01  5.053794393334612e-01 
3.950000e-01  5.054058944449821e-01 
4.000000e-01  5.045146348790127e-01 
4.050000e-01  5.045861719128824e-01 
4.100000e-01  5.065365912793978e-01 
4.150000e-01  5.093231080218779e-01 
4.200000e-01  5.108181815936212e-01 
4.250000e-01  5.095252622146820e-01 
4.300000e-01  5.056814331722473e-01 
4.350000e-01  5.010865472865500e-01 
4.400000e-01  4.979807587252064e-01 
4.450000e-01  4.977381317545036e-01 
4.500000e-01  5.000968219089656e-01 
4.550000e-01  5.033587439342946e-01 
4.600000e-01  5.054847477666442e-01 
4.650000e-01  5.053837459513871e-01 
4.700000e-01  5.034463750914596e-01 
4.750000e-01  5.009471344633317e-01 
4.800000e-01  4.989571966848158e-01 
4.850000e-01  4.978248465634618e-01 
4.900000e-01  4.975575296022947e-01 
4.950000e-01  4.983529339265461e-01 
5.000000e-01  5.003775692019490e-01 
5.050000e-01  5.029296962529068e-01 
5.100000e-01  5.041257031406576e-01 
5.150000e-01  5.019185751458559e-01 
5.200000e-01  4.958237662856636e-01 
5.250000e-01  4.877688390043334e-01 
5.300000e-01  4.811227253476088e-01 
5.350000e-01  4.785768831534254e-01 
5.400000e-01  4.805144287465420e-01 
5.450000e-01  4.849787866730026e-01 
5.500000e-01  4.890324386223048e-01 
5.550000e-01  4.904483956279096e-01 
5.600000e-01  4.887871327770042e-01 
5.650000e-01  4.854843508498676e-01 
5.700000e-01  4.830384255110480e-01 
5.750000e-01  4.836785971528340e-01 
5.800000e-01  4.881371319701780e-01 
5.850000e-01  4.951888122121199e-01 
5.900000e-01  5.022291117656863e-01 
5.950000e-01  5.065330583782789e-01 
6.000000e-01  5.065013880313346e-01 
6.050000e-01  5.023730546531705e-01 
6.100000e-01  4.962187596071909e-01 
6.150000e-01  4.911770161072380e-01 
6.200000e-01  4.900207656174974e-01 
6.250000e-01  4.935937767096939e-01 
6.300000e-01  5.001657792911950e-01 
6.350000e-01  5.064891040755354e-01 
6.400000e-01  5.100395652999286e-01 
6.450000e-01  5.106719573828622e-01 
6.500000e-01  5.101864530488919e-01 
6.550000e-01  5.101705839723089e-01 
6.600000e-01  5.101960157511334e-01 
6.650000e-01  5.081613036928905e-01 
6.700000e-01  5.024614608970177e-01 
6.750000e-01  4.938716522930635e-01 
6.800000e-01  4.853671542900156e-01 
6.850000e-01  4.801085265795595e-01 
6.900000e-01  4.793851357568333e-01 
6.950000e-01  4.820382779358832e-01 
7.000000e-01  4.854152433315957e-01 
7.050000e-01  4.868748438363883e-01 
7.100000e-01  4.849965028241886e-01 
7.150000e-01  4.802228745263157e-01 
7.200000e-01  4.748212655726201e-01 
7.250000e-01  4.719353809315904e-01 
7.300000e-01  4.738412025270073e-01 
7.350000e-01  4.803409555332830e-01 
7.400000e-01  4.885730544792325e-01 
7.450000e-01  4.946427536614199e-01 
7.500000e-01  4.959967767706092e-01 
7.550000e-01  4.928058866559054e-01 
7.600000e-01  4.874531528661355e-01 
7.650000e-01  4.827597708401919e-01 
7.700000e-01  4.804108874197960e-01 
7.750000e-01  4.805719521326337e-01 
7.800000e-01  4.825555671094325e-01 
7.850000e-01  4.856697848129885e-01 
7.900000e-01  4.895256608713485e-01 
7.950000e-01  4.937636287362634e-01 
8.000000e-01  4.977145019868968e-01 
8.050000e-01  5.005180420489319e-01 
8.100000e-01  5.017208130796548e-01 
8.150000e-01  5.018106686038922e-01 
8.200000e-01  5.020691539084667e-01 
8.250000e-01  5.037088050596091e-01 
8.300000e-01  5.070079136371644e-01 
8.350000e-01  5.112559380560625e-01 
8.400000e-01  5.155414998390893e-01 
8.450000e-01  5.195029091726880e-01 
8.500000e-01  5.231571988421216e-01 
8.550000e-01  5.259604784832276e-01 
8.600000e-01  5.262589854965145e-01 
8.650000e-01  5.220893822810730e-01 
8.700000e-01  5.129412661125291e-01 
8.750000e-01  5.009457919061655e-01 
8.800000e-01  4.902315097454413e-01 
8.850000e-01  4.846853020213835e-01 
8.900000e-01  4.856762583464377e-01 
8.950000e-01  4.913238902003970e-01 
9.000000e-01  4.977302461041225e-01 
9.050000e-01  5.012871401057191e-01 
9.100000e-01  5.006441056268176e-01 
9.150000e-01  4.972944499273514e-01 
9.200000e-01  4.945628433595183e-01 
9.250000e-01  4.956008346184290e-01 
9.300000e-01  5.015020378806856e-01 
9.350000e-01  5.106049731016231e-01 
9.400000e-01  5.193950492666646e-01 
9.450000e-01  5.244674535551386e-01 
9.500000e-01  5.243787693672304e-01 
9.550000e-01  5.203157677842480e-01 
9.600000e-01  5.152445880087213e-01 
9.650000e-01  5.120777982674841e-01 
9.700000e-01  5.119279990899069e-01 
9.750000e-01  5.134954604512763e-01 
9.800000e-01  5.140517793361949e-01 
9.850000e-01  5.114971534265922e-01 
9.900000e-01  5.061074965421333e-01 
9.950000e-01  5.005956966079307e-01 
1.000000e+00  4.982679620054692e-01 
