TITLE ="t=137.103639" 
VARIABLES = "x"                 "phi" 
ZONE I=201, ZONETYPE=Ordered, DATAPACKING=POINT
0.000000e+00  1.016564256142163e+00 
5.000000e-03  9.243660310676671e-01 
1.000000e-02  8.056590333821014e-01 
1.500000e-02  6.583338218433784e-01 
2.000000e-02  4.970873022747281e-01 
2.500000e-02  3.382112230470000e-01 
3.000000e-02  1.977552426795665e-01 
3.500000e-02  8.973482457255794e-02 
4.000000e-02  2.441138417025482e-02 
4.500000e-02  4.739598343694025e-03 
5.000000e-02  4.699782682611515e-03 
5.500000e-02  4.622663305416187e-03 
6.000000e-02  5.480877855366432e-03 
6.500000e-02  3.027780087132916e-02 
7.000000e-02  9.929887952967585e-02 
7.500000e-02  2.081697448979317e-01 
8.000000e-02  3.464090358857152e-01 
8.500000e-02  5.001772884433274e-01 
9.000000e-02  6.539193694299701e-01 
9.500000e-02  7.920847242071170e-01 
1.000000e-01  9.008482439810155e-01 
1.050000e-01  9.697566533367697e-01 
1.100000e-01  9.944973052143449e-01 
1.150000e-01  9.953458107648722e-01 
1.200000e-01  9.952258073769672e-01 
1.250000e-01  9.952512444223871e-01 
1.300000e-01  9.952037809903963e-01 
1.350000e-01  9.954769891819708e-01 
1.400000e-01  9.815087193265027e-01 
1.450000e-01  9.249453898090357e-01 
1.500000e-01  8.264563535388431e-01 
1.550000e-01  6.952114683589727e-01 
1.600000e-01  5.442557295642826e-01 
1.650000e-01  3.888277554367038e-01 
1.700000e-01  2.446585695413457e-01 
1.750000e-01  1.262366044338178e-01 
1.800000e-01  4.514575505893565e-02 
1.850000e-01  8.028050663229617e-03 
1.900000e-01  4.510853584872012e-03 
1.950000e-01  4.479565447230454e-03 
2.000000e-01  1.561481459426678e-02 
2.050000e-01  6.833339010402274e-02 
2.100000e-01  1.635191377836961e-01 
2.150000e-01  2.924400023722979e-01 
2.200000e-01  4.423138360373997e-01 
2.250000e-01  5.980217441509289e-01 
2.300000e-01  7.438022836383670e-01 
2.350000e-01  8.649889604805220e-01 
2.400000e-01  9.496802862521641e-01 
2.450000e-01  9.906580710372170e-01 
2.500000e-01  9.956170978705133e-01 
2.550000e-01  9.951287747622508e-01 
2.600000e-01  9.955729839081808e-01 
2.650000e-01  9.834205294815973e-01 
2.700000e-01  9.293299118917332e-01 
2.750000e-01  8.329582562935107e-01 
2.800000e-01  7.031961304948020e-01 
2.850000e-01  5.529208524876591e-01 
2.900000e-01  3.972957183208957e-01 
2.950000e-01  2.520731986760159e-01 
3.000000e-01  1.318581835862524e-01 
3.050000e-01  4.844086980243744e-02 
3.100000e-01  8.840107393729967e-03 
3.150000e-01  4.410232742975627e-03 
3.200000e-01  4.815586170099496e-03 
3.250000e-01  4.744295989366383e-03 
3.300000e-01  4.783702499393605e-03 
3.350000e-01  4.600808659109530e-03 
3.400000e-01  5.988759956788188e-03 
3.450000e-01  3.397531520443837e-02 
3.500000e-01  1.061863157245923e-01 
3.550000e-01  2.175961059378171e-01 
3.600000e-01  3.574380248454067e-01 
3.650000e-01  5.117030902354066e-01 
3.700000e-01  6.647872036199126e-01 
3.750000e-01  8.012162502020695e-01 
3.800000e-01  9.073620751880619e-01 
3.850000e-01  9.730902229333875e-01 
3.900000e-01  9.948540313588278e-01 
3.950000e-01  9.952988904149793e-01 
4.000000e-01  9.952334153366251e-01 
4.050000e-01  9.952437504545673e-01 
4.100000e-01  9.952421568816363e-01 
4.150000e-01  9.952424243345911e-01 
4.200000e-01  9.952423997990072e-01 
4.250000e-01  9.952424290606582e-01 
4.300000e-01  9.952423974456298e-01 
4.350000e-01  9.952427113016754e-01 
4.400000e-01  9.952408196751873e-01 
4.450000e-01  9.952530281591270e-01 
4.500000e-01  9.951741474523845e-01 
4.550000e-01  9.956474946758943e-01 
4.600000e-01  9.881052311627463e-01 
4.650000e-01  9.414421580944543e-01 
4.700000e-01  8.515865191712553e-01 
4.750000e-01  7.265268748908169e-01 
4.800000e-01  5.786067224612018e-01 
4.850000e-01  4.227288379254527e-01 
4.900000e-01  2.746730292300250e-01 
4.950000e-01  1.493570654493339e-01 
5.000000e-01  5.915362213962470e-02 
5.050000e-01  1.210124563296775e-02 
5.100000e-01  4.352382302069850e-03 
5.150000e-01  4.825843759691834e-03 
5.200000e-01  4.746903974382935e-03 
5.250000e-01  4.759083662875929e-03 
5.300000e-01  4.757158347444068e-03 
5.350000e-01  4.757439652093128e-03 
5.400000e-01  4.757373284235220e-03 
5.450000e-01  4.757381010426562e-03 
5.500000e-01  4.757250477193184e-03 
5.550000e-01  4.757952672519381e-03 
5.600000e-01  4.753334635215205e-03 
5.650000e-01  4.782890572244595e-03 
5.700000e-01  4.598236236143942e-03 
5.750000e-01  6.016756113287868e-03 
5.800000e-01  3.417187450343814e-02 
5.850000e-01  1.065524164872460e-01 
5.900000e-01  2.180982698485234e-01 
5.950000e-01  3.580267100498328e-01 
6.000000e-01  5.123191445692327e-01 
6.050000e-01  6.653684760796791e-01 
6.100000e-01  8.017044254994483e-01 
6.150000e-01  9.077092497936682e-01 
6.200000e-01  9.732656906530771e-01 
6.250000e-01  9.948711804673619e-01 
6.300000e-01  9.952966228881491e-01 
6.350000e-01  9.952338667888263e-01 
6.400000e-01  9.952440933111499e-01 
6.450000e-01  9.952409041526424e-01 
6.500000e-01  9.952521839903977e-01 
6.550000e-01  9.951813154174327e-01 
6.600000e-01  9.956094061788641e-01 
6.650000e-01  9.905918079987330e-01 
6.700000e-01  9.494339761069427e-01 
6.750000e-01  8.645757586390859e-01 
6.800000e-01  7.432611274952869e-01 
6.850000e-01  5.974062375159614e-01 
6.900000e-01  4.416857838662827e-01 
6.950000e-01  2.918625381377034e-01 
7.000000e-01  1.630497253527150e-01 
7.050000e-01  6.801709754183019e-02 
7.100000e-01  1.547536652072858e-02 
7.150000e-01  4.404466342970117e-03 
7.200000e-01  4.816750177124309e-03 
7.250000e-01  4.748537337614985e-03 
7.300000e-01  4.759035314067290e-03 
7.350000e-01  4.757186002620819e-03 
7.400000e-01  4.758223747528625e-03 
7.450000e-01  4.752691556084051e-03 
7.500000e-01  4.787521004704951e-03 
7.550000e-01  4.570575701351439e-03 
7.600000e-01  6.301564463980193e-03 
7.650000e-01  3.607411111349645e-02 
7.700000e-01  1.100696257372615e-01 
7.750000e-01  2.229075641361920e-01 
7.800000e-01  3.636529586938289e-01 
7.850000e-01  5.181964713168664e-01 
7.900000e-01  6.709035202600563e-01 
7.950000e-01  8.063416625060246e-01 
8.000000e-01  9.109938215102579e-01 
8.050000e-01  9.749089911330007e-01 
8.100000e-01  9.950227386903053e-01 
8.150000e-01  9.952751065212762e-01 
8.200000e-01  9.952369523350170e-01 
8.250000e-01  9.952430911168998e-01 
8.300000e-01  9.952410091681736e-01 
8.350000e-01  9.952483587711105e-01 
8.400000e-01  9.952017714943955e-01 
8.450000e-01  9.954883830708898e-01 
8.500000e-01  9.817504242079914e-01 
8.550000e-01  9.254903548796213e-01 
8.600000e-01  8.272605192692696e-01 
8.650000e-01  6.961967763263696e-01 
8.700000e-01  5.453235971966609e-01 
8.750000e-01  3.898704465149021e-01 
8.800000e-01  2.455711040022774e-01 
8.850000e-01  1.269284569641986e-01 
8.900000e-01  4.555200539493282e-02 
8.950000e-01  8.132190973107920e-03 
9.000000e-01  4.442165908804266e-03 
9.050000e-01  4.809265983285801e-03 
9.100000e-01  4.749581757301205e-03 
9.150000e-01  4.755325051454137e-03 
9.200000e-01  4.777367569554307e-03 
9.250000e-01  4.630465617141933e-03 
9.300000e-01  5.715369815579591e-03 
9.350000e-01  3.195151922828591e-02 
9.400000e-01  1.023847723000306e-01 
9.450000e-01  2.123627618695792e-01 
9.500000e-01  3.512888407438702e-01 
9.550000e-01  5.052559647138685e-01 
9.600000e-01  6.586927461260540e-01 
9.650000e-01  7.960861715692172e-01 
9.700000e-01  9.037002178218669e-01 
9.750000e-01  9.712220288902725e-01 
9.800000e-01  9.946608192053471e-01 
9.850000e-01  9.953243867804008e-01 
9.900000e-01  9.952294139020588e-01 
9.950000e-01  9.952444947680280e-01 
1.000000e+00  9.952417872072596e-01 
