TITLE ="t=67.103639" 
VARIABLES = "x"                 "phi" 
ZONE I=201, ZONETYPE=Ordered, DATAPACKING=POINT
0.000000e+00  1.016565365824319e+00 
5.000000e-03  9.243609918067333e-01 
1.000000e-02  8.056471640767632e-01 
1.500000e-02  6.583168705434680e-01 
2.000000e-02  4.970675469303112e-01 
2.500000e-02  3.381912248352921e-01 
3.000000e-02  1.977375671373600e-01 
3.500000e-02  8.972175322812792e-02 
4.000000e-02  2.440459734689792e-02 
4.500000e-02  4.738778776841559e-03 
5.000000e-02  4.700818374805103e-03 
5.500000e-02  4.617063705966386e-03 
6.000000e-02  5.527999975533126e-03 
6.500000e-02  3.067646907924221e-02 
7.000000e-02  1.000624638964182e-01 
7.500000e-02  2.092293625810162e-01 
8.000000e-02  3.476603574003427e-01 
8.500000e-02  5.014946111253320e-01 
9.000000e-02  6.551697290683323e-01 
9.500000e-02  7.931425262427726e-01 
1.000000e-01  9.016093812549286e-01 
1.050000e-01  9.701526702357327e-01 
1.100000e-01  9.945434544896201e-01 
1.150000e-01  9.953400686180168e-01 
1.200000e-01  9.952274751331832e-01 
1.250000e-01  9.952460541810412e-01 
1.300000e-01  9.952362131183370e-01 
1.350000e-01  9.952796428691962e-01 
1.400000e-01  9.781830553875200e-01 
1.450000e-01  9.177331300333006e-01 
1.500000e-01  8.159632755055486e-01 
1.550000e-01  6.824645891978723e-01 
1.600000e-01  5.305362584341876e-01 
1.650000e-01  3.755246062973908e-01 
1.700000e-01  2.331153486507366e-01 
1.750000e-01  1.176022505942063e-01 
1.800000e-01  4.023270734903733e-02 
1.850000e-01  7.012718015747447e-03 
1.900000e-01  4.529839341652142e-03 
1.950000e-01  4.695244543417951e-03 
2.000000e-01  2.050231806071862e-02 
2.050000e-01  7.943265810766706e-02 
2.100000e-01  1.799247773156548e-01 
2.150000e-01  3.125494529213633e-01 
2.200000e-01  4.641058098774619e-01 
2.250000e-01  6.192886200364239e-01 
2.300000e-01  7.623934529705398e-01 
2.350000e-01  8.790494774030048e-01 
2.400000e-01  9.578765735896972e-01 
2.450000e-01  9.926124832471882e-01 
2.500000e-01  9.955202912144204e-01 
2.550000e-01  9.951638497796509e-01 
2.600000e-01  9.954600064767588e-01 
2.650000e-01  9.809746472257925e-01 
2.700000e-01  9.237503859824427e-01 
2.750000e-01  8.246998487214011e-01 
2.800000e-01  6.930658636996008e-01 
2.850000e-01  5.419373880639023e-01 
2.900000e-01  3.865722074968755e-01 
2.950000e-01  2.426945797638152e-01 
3.000000e-01  1.247608103080623e-01 
3.050000e-01  4.429873100020405e-02 
3.100000e-01  7.847644935142558e-03 
3.150000e-01  4.457236163185973e-03 
3.200000e-01  4.807244729449748e-03 
3.250000e-01  4.745419624674569e-03 
3.300000e-01  4.784177543083329e-03 
3.350000e-01  4.596555155055140e-03 
3.400000e-01  6.030610879174982e-03 
3.450000e-01  3.426858753210182e-02 
3.500000e-01  1.067325488564128e-01 
3.550000e-01  2.183453694792109e-01 
3.600000e-01  3.583163763369446e-01 
3.650000e-01  5.126222300071902e-01 
3.700000e-01  6.656543567919326e-01 
3.750000e-01  8.019443790405225e-01 
3.800000e-01  9.078797079520319e-01 
3.850000e-01  9.733516123725313e-01 
3.900000e-01  9.948794500396985e-01 
3.950000e-01  9.952954090293120e-01 
4.000000e-01  9.952339604010042e-01 
4.050000e-01  9.952436590715364e-01 
4.100000e-01  9.952421679401167e-01 
4.150000e-01  9.952424226928102e-01 
4.200000e-01  9.952424034482956e-01 
4.250000e-01  9.952424351805527e-01 
4.300000e-01  9.952424065449395e-01 
4.350000e-01  9.952427228619374e-01 
4.400000e-01  9.952408366003287e-01 
4.450000e-01  9.952530318863143e-01 
4.500000e-01  9.951742596492917e-01 
4.550000e-01  9.956470117717442e-01 
4.600000e-01  9.882999438919358e-01 
4.650000e-01  9.420113979468840e-01 
4.700000e-01  8.524910204975544e-01 
4.750000e-01  7.276790012549071e-01 
4.800000e-01  5.798906498704300e-01 
4.850000e-01  4.240141800409244e-01 
4.900000e-01  2.758292458113394e-01 
4.950000e-01  1.502678838041411e-01 
5.000000e-01  5.973068389051370e-02 
5.050000e-01  1.230392161564735e-02 
5.100000e-01  4.352698559076182e-03 
5.150000e-01  4.825820870416658e-03 
5.200000e-01  4.746944817372511e-03 
5.250000e-01  4.759117234534308e-03 
5.300000e-01  4.757195708772572e-03 
5.350000e-01  4.757478995854348e-03 
5.400000e-01  4.757415204333679e-03 
5.450000e-01  4.757423446068949e-03 
5.500000e-01  4.757306342752911e-03 
5.550000e-01  4.757939332317104e-03 
5.600000e-01  4.753780509729944e-03 
5.650000e-01  4.780391566256668e-03 
5.700000e-01  4.613727146752392e-03 
5.750000e-01  5.868394661996127e-03 
5.800000e-01  3.310854019518394e-02 
5.850000e-01  1.045650537869282e-01 
5.900000e-01  2.153682305228622e-01 
5.950000e-01  3.548233124589092e-01 
6.000000e-01  5.089643643291133e-01 
6.050000e-01  6.622008978865263e-01 
6.100000e-01  7.990419748152258e-01 
6.150000e-01  9.058133135376080e-01 
6.200000e-01  9.723041999914829e-01 
6.250000e-01  9.947752755175563e-01 
6.300000e-01  9.953095780383940e-01 
6.350000e-01  9.952318665165354e-01 
6.400000e-01  9.952444595205622e-01 
6.450000e-01  9.952409992360896e-01 
6.500000e-01  9.952517049732875e-01 
6.550000e-01  9.951849559397167e-01 
6.600000e-01  9.955894475452058e-01 
6.650000e-01  9.911637774112546e-01 
6.700000e-01  9.515746725544972e-01 
6.750000e-01  8.681685676581889e-01 
6.800000e-01  7.479625153041276e-01 
6.850000e-01  6.027456580956738e-01 
6.900000e-01  4.471222372319461e-01 
6.950000e-01  2.968445112494523e-01 
7.000000e-01  1.670760161776826e-01 
7.050000e-01  7.069474718458682e-02 
7.100000e-01  1.659253949930358e-02 
7.150000e-01  4.441302867105281e-03 
7.200000e-01  4.810287042906392e-03 
7.250000e-01  4.749592633842632e-03 
7.300000e-01  4.758930930671568e-03 
7.350000e-01  4.757265097955715e-03 
7.400000e-01  4.758229158293623e-03 
7.450000e-01  4.752963123153096e-03 
7.500000e-01  4.786072213175256e-03 
7.550000e-01  4.579492356355215e-03 
7.600000e-01  6.207149584783928e-03 
7.650000e-01  3.546179912676407e-02 
7.700000e-01  1.089425394407614e-01 
7.750000e-01  2.213693795243709e-01 
7.800000e-01  3.618557047372634e-01 
7.850000e-01  5.163209496726638e-01 
7.900000e-01  6.691391038640331e-01 
7.950000e-01  8.048654483961170e-01 
8.000000e-01  9.099505868705362e-01 
8.050000e-01  9.743901385881979e-01 
8.100000e-01  9.949765129859280e-01 
8.150000e-01  9.952817420324327e-01 
8.200000e-01  9.952359251159787e-01 
8.250000e-01  9.952432460414883e-01 
8.300000e-01  9.952411210678760e-01 
8.350000e-01  9.952475350811493e-01 
8.400000e-01  9.952071612516259e-01 
8.450000e-01  9.954567201308456e-01 
8.500000e-01  9.811141571746848e-01 
8.550000e-01  9.240663984808971e-01 
8.600000e-01  8.251662419408295e-01 
8.650000e-01  6.936369165119466e-01 
8.700000e-01  5.425554910861392e-01 
8.750000e-01  3.871744956245393e-01 
8.800000e-01  2.432198733490980e-01 
8.850000e-01  1.251564162453327e-01 
8.900000e-01  4.452689525985826e-02 
8.950000e-01  7.898496532646607e-03 
9.000000e-01  4.454559024318152e-03 
9.050000e-01  4.807066881462013e-03 
9.100000e-01  4.749930719851967e-03 
9.150000e-01  4.755031124497631e-03 
9.200000e-01  4.778761571481677e-03 
9.250000e-01  4.621827631260766e-03 
9.300000e-01  5.793163409380803e-03 
9.350000e-01  3.254818815998946e-02 
9.400000e-01  1.035116055952118e-01 
9.450000e-01  2.139175113227237e-01 
9.500000e-01  3.531183106128573e-01 
9.550000e-01  5.071763627209912e-01 
9.600000e-01  6.605102908638105e-01 
9.650000e-01  7.976184208936852e-01 
9.700000e-01  9.047966205549554e-01 
9.750000e-01  9.717848113206539e-01 
9.800000e-01  9.947211699879561e-01 
9.850000e-01  9.953165979372852e-01 
9.900000e-01  9.952306262084234e-01 
9.950000e-01  9.952442609228034e-01 
1.000000e+00  9.952418125704916e-01 
