TITLE ="t=97.103639" 
VARIABLES = "x"                 "phi" 
ZONE I=201, ZONETYPE=Ordered, DATAPACKING=POINT
0.000000e+00  1.016564139554755e+00 
5.000000e-03  9.243665593908955e-01 
1.000000e-02  8.056602890342002e-01 
1.500000e-02  6.583356313059016e-01 
2.000000e-02  4.970894314393301e-01 
2.500000e-02  3.382134013856861e-01 
3.000000e-02  1.977571907293477e-01 
3.500000e-02  8.973628135185559e-02 
4.000000e-02  2.441213306385345e-02 
4.500000e-02  4.739548054842451e-03 
5.000000e-02  4.700358239207106e-03 
5.500000e-02  4.619463200359230e-03 
6.000000e-02  5.508088874741486e-03 
6.500000e-02  3.050872590682184e-02 
7.000000e-02  9.974135338854855e-02 
7.500000e-02  2.087838447765496e-01 
8.000000e-02  3.471342991006127e-01 
8.500000e-02  5.009408647081354e-01 
9.000000e-02  6.546441964401238e-01 
9.500000e-02  7.926980060714587e-01 
1.000000e-01  9.012896326754749e-01 
1.050000e-01  9.699864517868048e-01 
1.100000e-01  9.945241944399592e-01 
1.150000e-01  9.953424792523234e-01 
1.200000e-01  9.952267193247090e-01 
1.250000e-01  9.952485434454301e-01 
1.300000e-01  9.952205705218686e-01 
1.350000e-01  9.953765780881213e-01 
1.400000e-01  9.796798233539118e-01 
1.450000e-01  9.209240485446819e-01 
1.500000e-01  8.205776473872423e-01 
1.550000e-01  6.880505474438783e-01 
1.600000e-01  5.365324642340743e-01 
1.650000e-01  3.813242925768513e-01 
1.700000e-01  2.381331514388145e-01 
1.750000e-01  1.213393304269735e-01 
1.800000e-01  4.233873432681583e-02 
1.850000e-01  7.422011351639091e-03 
1.900000e-01  4.525003036964902e-03 
1.950000e-01  4.575793737677031e-03 
2.000000e-01  1.822235978680295e-02 
2.050000e-01  7.441705892509431e-02 
2.100000e-01  1.725906387986279e-01 
2.150000e-01  3.036138028250933e-01 
2.200000e-01  4.544664594915577e-01 
2.250000e-01  6.099213191424004e-01 
2.300000e-01  7.542443743456402e-01 
2.350000e-01  8.729301075315921e-01 
2.400000e-01  9.543640913873057e-01 
2.450000e-01  9.918464137968698e-01 
2.500000e-01  9.955664652938332e-01 
2.550000e-01  9.951468215247120e-01 
2.600000e-01  9.955167053824701e-01 
2.650000e-01  9.820962262002375e-01 
2.700000e-01  9.262664014558732e-01 
2.750000e-01  8.284031894000381e-01 
2.800000e-01  6.975944938488867e-01 
2.850000e-01  5.468360327424741e-01 
2.900000e-01  3.913446129360940e-01 
2.950000e-01  2.468582042746846e-01 
3.000000e-01  1.279003896399960e-01 
3.050000e-01  4.611695925193041e-02 
3.100000e-01  8.264793858183019e-03 
3.150000e-01  4.435409978139508e-03 
3.200000e-01  4.811088077979930e-03 
3.250000e-01  4.744891946789123e-03 
3.300000e-01  4.783959671736862e-03 
3.350000e-01  4.598476801314518e-03 
3.400000e-01  6.011602830421846e-03 
3.450000e-01  3.413591079363250e-02 
3.500000e-01  1.064855841186770e-01 
3.550000e-01  2.180067004577151e-01 
3.600000e-01  3.579194281833934e-01 
3.650000e-01  5.122069085899864e-01 
3.700000e-01  6.652625832629646e-01 
3.750000e-01  8.016154753920399e-01 
3.800000e-01  9.076459561102183e-01 
3.850000e-01  9.732336608952250e-01 
3.900000e-01  9.948680287766852e-01 
3.950000e-01  9.952969772763267e-01 
4.000000e-01  9.952337151269857e-01 
4.050000e-01  9.952437004044302e-01 
4.100000e-01  9.952421631748303e-01 
4.150000e-01  9.952424236772204e-01 
4.200000e-01  9.952424020808998e-01 
4.250000e-01  9.952424327322003e-01 
4.300000e-01  9.952424027813660e-01 
4.350000e-01  9.952427180495480e-01 
4.400000e-01  9.952408292208297e-01 
4.450000e-01  9.952530316413507e-01 
4.500000e-01  9.951742030149804e-01 
4.550000e-01  9.956472657085857e-01 
4.600000e-01  9.882165327383332e-01 
4.650000e-01  9.417666253697713e-01 
4.700000e-01  8.521017211382563e-01 
4.750000e-01  7.271828875525266e-01 
4.800000e-01  5.793375941733901e-01 
4.850000e-01  4.234603459067805e-01 
4.900000e-01  2.753308813742583e-01 
4.950000e-01  1.498751079759925e-01 
5.000000e-01  5.948160575729129e-02 
5.050000e-01  1.221612539789208e-02 
5.100000e-01  4.352512701996598e-03 
5.150000e-01  4.825839774595450e-03 
5.200000e-01  4.746925830828514e-03 
5.250000e-01  4.759102965086979e-03 
5.300000e-01  4.757179547484209e-03 
5.350000e-01  4.757462009720498e-03 
5.400000e-01  4.757397094774143e-03 
5.450000e-01  4.757405092771068e-03 
5.500000e-01  4.757282278010919e-03 
5.550000e-01  4.757944535402589e-03 
5.600000e-01  4.753591295766146e-03 
5.650000e-01  4.781448649020094e-03 
5.700000e-01  4.607159764769297e-03 
5.750000e-01  5.930416346649718e-03 
5.800000e-01  3.355968826646166e-02 
5.850000e-01  1.054101441787574e-01 
5.900000e-01  2.165302402429150e-01 
5.950000e-01  3.561876399082129e-01 
6.000000e-01  5.103938958938636e-01 
6.050000e-01  6.635513638837676e-01 
6.100000e-01  8.001778291346177e-01 
6.150000e-01  9.066230243538698e-01 
6.200000e-01  9.727159385880618e-01 
6.250000e-01  9.948170000178260e-01 
6.300000e-01  9.953039952160406e-01 
6.350000e-01  9.952327303244742e-01 
6.400000e-01  9.952443026570440e-01 
6.450000e-01  9.952409579313353e-01 
6.500000e-01  9.952519226339379e-01 
6.550000e-01  9.951833255646565e-01 
6.600000e-01  9.955984234062777e-01 
6.650000e-01  9.909234195000121e-01 
6.700000e-01  9.506564668328524e-01 
6.750000e-01  8.666213243289608e-01 
6.800000e-01  7.459339961360406e-01 
6.850000e-01  6.004388002962145e-01 
6.900000e-01  4.447707148272150e-01 
6.950000e-01  2.946868387689041e-01 
7.000000e-01  1.653292467059873e-01 
7.050000e-01  6.952940907980973e-02 
7.100000e-01  1.610140192323161e-02 
7.150000e-01  4.424020318014641e-03 
7.200000e-01  4.813312580163299e-03 
7.250000e-01  4.749102776867824e-03 
7.300000e-01  4.758983090085041e-03 
7.350000e-01  4.757231335016086e-03 
7.400000e-01  4.758227715391163e-03 
7.450000e-01  4.752848043314552e-03 
7.500000e-01  4.786688743049328e-03 
7.550000e-01  4.575695826068262e-03 
7.600000e-01  6.247001561914785e-03 
7.650000e-01  3.572236158200302e-02 
7.700000e-01  1.094227502530950e-01 
7.750000e-01  2.220250941770340e-01 
7.800000e-01  3.626221251064186e-01 
7.850000e-01  5.171209809253432e-01 
7.900000e-01  6.698919697984790e-01 
7.950000e-01  8.054955835912482e-01 
8.000000e-01  9.103961871402729e-01 
8.050000e-01  9.746121264763651e-01 
8.100000e-01  9.949964770608223e-01 
8.150000e-01  9.952788894387181e-01 
8.200000e-01  9.952363666580226e-01 
8.250000e-01  9.952431792672163e-01 
8.300000e-01  9.952410709713173e-01 
8.350000e-01  9.952478985642386e-01 
8.400000e-01  9.952047805854676e-01 
8.450000e-01  9.954707488276933e-01 
8.500000e-01  9.813898346911373e-01 
8.550000e-01  9.246808547475106e-01 
8.600000e-01  8.260687105435046e-01 
8.650000e-01  6.947391630924852e-01 
8.700000e-01  5.437467162692378e-01 
8.750000e-01  3.883340447202381e-01 
8.800000e-01  2.442305325826400e-01 
8.850000e-01  1.259174271895578e-01 
8.900000e-01  4.496627438897406e-02 
8.950000e-01  7.997548242859328e-03 
9.000000e-01  4.449183364812300e-03 
9.050000e-01  4.808018603260373e-03 
9.100000e-01  4.749779283540880e-03 
9.150000e-01  4.755155255850059e-03 
9.200000e-01  4.778173567389119e-03 
9.250000e-01  4.625465172246324e-03 
9.300000e-01  5.760158877635947e-03 
9.350000e-01  3.229719558149929e-02 
9.400000e-01  1.030382232714169e-01 
9.450000e-01  2.132647249654793e-01 
9.500000e-01  3.523504511025195e-01 
9.550000e-01  5.063705750002742e-01 
9.600000e-01  6.597478858587540e-01 
9.650000e-01  7.969759260523916e-01 
9.700000e-01  9.043371572653306e-01 
9.750000e-01  9.715493188765107e-01 
9.800000e-01  9.946961443776364e-01 
9.850000e-01  9.953198473309360e-01 
9.900000e-01  9.952301209091592e-01 
9.950000e-01  9.952443584308748e-01 
1.000000e+00  9.952418020202285e-01 
