TITLE ="t=57.103639" 
VARIABLES = "x"                 "phi" 
ZONE I=201, ZONETYPE=Ordered, DATAPACKING=POINT
0.000000e+00  1.016550403936392e+00 
5.000000e-03  9.244288983578873e-01 
1.000000e-02  8.058073300497529e-01 
1.500000e-02  6.585459283537818e-01 
2.000000e-02  4.973348926802655e-01 
2.500000e-02  3.384623097758543e-01 
3.000000e-02  1.979776216352150e-01 
3.500000e-02  8.989961773508470e-02 
4.000000e-02  2.449684796973089e-02 
4.500000e-02  4.747179312367509e-03 
5.000000e-02  4.700283956192537e-03 
5.500000e-02  4.618132479726248e-03 
6.000000e-02  5.526025631397919e-03 
6.500000e-02  3.065457705824570e-02 
7.000000e-02  1.000182071398175e-01 
7.500000e-02  2.091663133066057e-01 
8.000000e-02  3.475846862901739e-01 
8.500000e-02  5.014140365328987e-01 
9.000000e-02  6.550925787755622e-01 
9.500000e-02  7.930767894687052e-01 
1.000000e-01  9.015617932796294e-01 
1.050000e-01  9.701277871441608e-01 
1.100000e-01  9.945405547731523e-01 
1.150000e-01  9.953403872964660e-01 
1.200000e-01  9.952275427938347e-01 
1.250000e-01  9.952452082281793e-01 
1.300000e-01  9.952416659007943e-01 
1.350000e-01  9.952449841912692e-01 
1.400000e-01  9.776914262394785e-01 
1.450000e-01  9.167016803523064e-01 
1.500000e-01  8.144803184870651e-01 
1.550000e-01  6.806754219895533e-01 
1.600000e-01  5.286206427548957e-01 
1.650000e-01  3.736763026289177e-01 
1.700000e-01  2.315207792259741e-01 
1.750000e-01  1.164197421902150e-01 
1.800000e-01  3.957267188146586e-02 
1.850000e-01  6.892241122226434e-03 
1.900000e-01  4.530112116681466e-03 
1.950000e-01  4.742969629666278e-03 
2.000000e-01  2.127875485327795e-02 
2.050000e-01  8.109222455443542e-02 
2.100000e-01  1.823271086331500e-01 
2.150000e-01  3.154595029078585e-01 
2.200000e-01  4.672313169203222e-01 
2.250000e-01  6.223134658379130e-01 
2.300000e-01  7.650124828161022e-01 
2.350000e-01  8.810024442180859e-01 
2.400000e-01  9.589804360750478e-01 
2.450000e-01  9.928319100700544e-01 
2.500000e-01  9.955047416590542e-01 
2.550000e-01  9.951698098682785e-01 
2.600000e-01  9.954390880504236e-01 
2.650000e-01  9.805958467493684e-01 
2.700000e-01  9.229146402995553e-01 
2.750000e-01  8.234766206910054e-01 
2.800000e-01  6.915747791399245e-01 
2.850000e-01  5.403283091340539e-01 
2.900000e-01  3.850080632949892e-01 
2.950000e-01  2.413334139044641e-01 
3.000000e-01  1.237382262677808e-01 
3.050000e-01  4.371125881406147e-02 
3.100000e-01  7.718955007717562e-03 
3.150000e-01  4.464626757169319e-03 
3.200000e-01  4.805954371397993e-03 
3.250000e-01  4.745600332345804e-03 
3.300000e-01  4.784249259678118e-03 
3.350000e-01  4.595929489329027e-03 
3.400000e-01  6.036835859160474e-03 
3.450000e-01  3.431185174778336e-02 
3.500000e-01  1.068130270949207e-01 
3.550000e-01  2.184556992455088e-01 
3.600000e-01  3.584456675258760e-01 
3.650000e-01  5.127574843578627e-01 
3.700000e-01  6.657819221711245e-01 
3.750000e-01  8.020514521575861e-01 
3.800000e-01  9.079557804723786e-01 
3.850000e-01  9.733899678931744e-01 
3.900000e-01  9.948831467411753e-01 
3.950000e-01  9.952949000740815e-01 
4.000000e-01  9.952340399658295e-01 
4.050000e-01  9.952436456688875e-01 
4.100000e-01  9.952421695024453e-01 
4.150000e-01  9.952424223994979e-01 
4.200000e-01  9.952424039276908e-01 
4.250000e-01  9.952424360199641e-01 
4.300000e-01  9.952424078229278e-01 
4.350000e-01  9.952427244756623e-01 
4.400000e-01  9.952408391475415e-01 
4.450000e-01  9.952530315475928e-01 
4.500000e-01  9.951742814163139e-01 
4.550000e-01  9.956469113733640e-01 
4.600000e-01  9.883277358160646e-01 
4.650000e-01  9.420932670562926e-01 
4.700000e-01  8.526213529889116e-01 
4.750000e-01  7.278451736968352e-01 
4.800000e-01  5.800759583987033e-01 
4.850000e-01  4.241998066068398e-01 
4.900000e-01  2.759963378427037e-01 
4.950000e-01  1.503996367971221e-01 
5.000000e-01  5.981431253271773e-02 
5.050000e-01  1.233350604552053e-02 
5.100000e-01  4.352777869586367e-03 
5.150000e-01  4.825811423620211e-03 
5.200000e-01  4.746951646401570e-03 
5.250000e-01  4.759121935671794e-03 
5.300000e-01  4.757201129559313e-03 
5.350000e-01  4.757484679767265e-03 
5.400000e-01  4.757421265961688e-03 
5.450000e-01  4.757429594223614e-03 
5.500000e-01  4.757314371575242e-03 
5.550000e-01  4.757937766427391e-03 
5.600000e-01  4.753842733976897e-03 
5.650000e-01  4.780045007733852e-03 
5.700000e-01  4.615884911864918e-03 
5.750000e-01  5.848289211120146e-03 
5.800000e-01  3.296014967047087e-02 
5.850000e-01  1.042864685866451e-01 
5.900000e-01  2.149848106540398e-01 
5.950000e-01  3.543728623949305e-01 
6.000000e-01  5.084921489675761e-01 
6.050000e-01  6.617545715459847e-01 
6.100000e-01  7.986663360373538e-01 
6.150000e-01  9.055452534634821e-01 
6.200000e-01  9.721675332044888e-01 
6.250000e-01  9.947612078951852e-01 
6.300000e-01  9.953114420544500e-01 
6.350000e-01  9.952315774625415e-01 
6.400000e-01  9.952445115553981e-01 
6.450000e-01  9.952410130601228e-01 
6.500000e-01  9.952516287710668e-01 
6.550000e-01  9.951855190411032e-01 
6.600000e-01  9.955863340785677e-01 
6.650000e-01  9.912420233031479e-01 
6.700000e-01  9.518799075765517e-01 
6.750000e-01  8.686849898948109e-01 
6.800000e-01  7.486408698952283e-01 
6.850000e-01  6.035181129802165e-01 
6.900000e-01  4.479105681185829e-01 
6.950000e-01  2.975687727629595e-01 
7.000000e-01  1.676633568240739e-01 
7.050000e-01  7.108781316540541e-02 
7.100000e-01  1.675985047209414e-02 
7.150000e-01  4.447570376195246e-03 
7.200000e-01  4.809193282825757e-03 
7.250000e-01  4.749768396749867e-03 
7.300000e-01  4.758910993763586e-03 
7.350000e-01  4.757276241344684e-03 
7.400000e-01  4.758229308618135e-03 
7.450000e-01  4.753000895059597e-03 
7.500000e-01  4.785868811813513e-03 
7.550000e-01  4.580745396091945e-03 
7.600000e-01  6.194107176329333e-03 
7.650000e-01  3.537583793873710e-02 
7.700000e-01  1.087839214543445e-01 
7.750000e-01  2.211526768651096e-01 
7.800000e-01  3.616023286974653e-01 
7.850000e-01  5.160563855731611e-01 
7.900000e-01  6.688900626273993e-01 
7.950000e-01  8.046569261466398e-01 
8.000000e-01  9.098030372264908e-01 
8.050000e-01  9.743165128910263e-01 
8.100000e-01  9.949698298495679e-01 
8.150000e-01  9.952826925235335e-01 
8.200000e-01  9.952357780107840e-01 
8.250000e-01  9.952432683406605e-01 
8.300000e-01  9.952411384674401e-01 
8.350000e-01  9.952474105590239e-01 
8.400000e-01  9.952079774806319e-01 
8.450000e-01  9.954518943138216e-01 
8.500000e-01  9.810214000475731e-01 
8.550000e-01  9.238604830935113e-01 
8.600000e-01  8.248642208520395e-01 
8.650000e-01  6.932683210307612e-01 
8.700000e-01  5.421573706765797e-01 
8.750000e-01  3.867871699485078e-01 
8.800000e-01  2.428824892087560e-01 
8.850000e-01  1.249026003861245e-01 
8.900000e-01  4.438063780092080e-02 
8.950000e-01  7.865893766858461e-03 
9.000000e-01  4.456368757779086e-03 
9.050000e-01  4.806747213468048e-03 
9.100000e-01  4.749981725098822e-03 
9.150000e-01  4.754990420210238e-03 
9.200000e-01  4.778954173794158e-03 
9.250000e-01  4.620638109157481e-03 
9.300000e-01  5.804035007926916e-03 
9.350000e-01  3.263018979556574e-02 
9.400000e-01  1.036660684313546e-01 
9.450000e-01  2.141303995513837e-01 
9.500000e-01  3.533686415774571e-01 
9.550000e-01  5.074389849259521e-01 
9.600000e-01  6.607587029826195e-01 
9.650000e-01  7.978276886429843e-01 
9.700000e-01  9.049461867262245e-01 
9.750000e-01  9.718613599502945e-01 
9.800000e-01  9.947292344504181e-01 
9.850000e-01  9.953155448492695e-01 
9.900000e-01  9.952307898317295e-01 
9.950000e-01  9.952442293386802e-01 
1.000000e+00  9.952418159823401e-01 
