TITLE ="t=107.103639" 
VARIABLES = "x"                 "phi" 
ZONE I=201, ZONETYPE=Ordered, DATAPACKING=POINT
0.000000e+00  1.016564167438147e+00 
5.000000e-03  9.243664330380572e-01 
1.000000e-02  8.056599887102176e-01 
1.500000e-02  6.583351984845746e-01 
2.000000e-02  4.970889220950487e-01 
2.500000e-02  3.382128802217793e-01 
3.000000e-02  1.977567246160331e-01 
3.500000e-02  8.973593278923052e-02 
4.000000e-02  2.441195405014981e-02 
4.500000e-02  4.739561385647267e-03 
5.000000e-02  4.700214566029750e-03 
5.500000e-02  4.620262689540068e-03 
6.000000e-02  5.501271418409066e-03 
6.500000e-02  3.045112381140153e-02 
7.000000e-02  9.963105830647928e-02 
7.500000e-02  2.086308115359632e-01 
8.000000e-02  3.469535956369600e-01 
8.500000e-02  5.007506422740510e-01 
9.000000e-02  6.544636527842321e-01 
9.500000e-02  7.925452733172224e-01 
1.000000e-01  9.011797393258243e-01 
1.050000e-01  9.699292780462855e-01 
1.100000e-01  9.945175333746372e-01 
1.150000e-01  9.953433086010887e-01 
1.200000e-01  9.952264777433781e-01 
1.250000e-01  9.952492994817532e-01 
1.300000e-01  9.952158433034592e-01 
1.350000e-01  9.954052168559631e-01 
1.400000e-01  9.801655928350979e-01 
1.450000e-01  9.219778315237401e-01 
1.500000e-01  8.221109414095031e-01 
1.550000e-01  6.899132824998990e-01 
1.600000e-01  5.385374132434492e-01 
1.650000e-01  3.832684789441261e-01 
1.700000e-01  2.398202103770707e-01 
1.750000e-01  1.226013363986657e-01 
1.800000e-01  4.305692140356693e-02 
1.850000e-01  7.570407808197792e-03 
1.900000e-01  4.522125204740355e-03 
1.950000e-01  4.545043013050353e-03 
2.000000e-01  1.750991212265313e-02 
2.050000e-01  7.279762817789188e-02 
2.100000e-01  1.701963033416160e-01 
2.150000e-01  3.006784532754717e-01 
2.200000e-01  4.512851556863520e-01 
2.250000e-01  6.068163625463697e-01 
2.300000e-01  7.515297807415292e-01 
2.350000e-01  8.708767651980394e-01 
2.400000e-01  9.531668312471554e-01 
2.450000e-01  9.915610274641621e-01 
2.500000e-01  9.955807737306595e-01 
2.550000e-01  9.951416926401297e-01 
2.600000e-01  9.955330027132792e-01 
2.650000e-01  9.824521270109605e-01 
2.700000e-01  9.270790442856807e-01 
2.750000e-01  8.296063690105525e-01 
2.800000e-01  6.990706348370771e-01 
2.850000e-01  5.484366960286955e-01 
2.900000e-01  3.929075685100973e-01 
2.950000e-01  2.482253139383148e-01 
3.000000e-01  1.289351512229615e-01 
3.050000e-01  4.672108673562839e-02 
3.100000e-01  8.409774979383099e-03 
3.150000e-01  4.428548289762453e-03 
3.200000e-01  4.812306820650177e-03 
3.250000e-01  4.744728053659393e-03 
3.300000e-01  4.783889884083042e-03 
3.350000e-01  4.599101273933625e-03 
3.400000e-01  6.005461511133657e-03 
3.450000e-01  3.409285922990061e-02 
3.500000e-01  1.064053941378850e-01 
3.550000e-01  2.178967018716791e-01 
3.600000e-01  3.577904763269952e-01 
3.650000e-01  5.120719668119953e-01 
3.700000e-01  6.651352721259938e-01 
3.750000e-01  8.015085733633917e-01 
3.800000e-01  9.075699565496961e-01 
3.850000e-01  9.731952807518853e-01 
3.900000e-01  9.948642951083900e-01 
3.950000e-01  9.952974885492510e-01 
4.000000e-01  9.952336350946117e-01 
4.050000e-01  9.952437138486638e-01 
4.100000e-01  9.952421615817882e-01 
4.150000e-01  9.952424239566811e-01 
4.200000e-01  9.952424015906487e-01 
4.250000e-01  9.952424318864090e-01 
4.300000e-01  9.952424015055964e-01 
4.350000e-01  9.952427164181041e-01 
4.400000e-01  9.952408268190641e-01 
4.450000e-01  9.952530311194877e-01 
4.500000e-01  9.951741870027049e-01 
4.550000e-01  9.956473346520444e-01 
4.600000e-01  9.881887203498897e-01 
4.650000e-01  9.416853183268589e-01 
4.700000e-01  8.519725280816871e-01 
4.750000e-01  7.270183259222956e-01 
4.800000e-01  5.791542074687196e-01 
4.850000e-01  4.232767575606122e-01 
4.900000e-01  2.751657367567176e-01 
4.950000e-01  1.497450145443359e-01 
5.000000e-01  5.939918385815176e-02 
5.050000e-01  1.218717802179701e-02 
5.100000e-01  4.352467742897216e-03 
5.150000e-01  4.825843002108453e-03 
5.200000e-01  4.746919998874613e-03 
5.250000e-01  4.759098163642104e-03 
5.300000e-01  4.757174204583265e-03 
5.350000e-01  4.757456382271493e-03 
5.400000e-01  4.757391098076235e-03 
5.450000e-01  4.757399021551797e-03 
5.500000e-01  4.757274285064211e-03 
5.550000e-01  4.757946440550833e-03 
5.600000e-01  4.753527516165838e-03 
5.650000e-01  4.781806089100224e-03 
5.700000e-01  4.604943958186506e-03 
5.750000e-01  5.951629469023868e-03 
5.800000e-01  3.371176864553883e-02 
5.850000e-01  1.056943872284950e-01 
5.900000e-01  2.169207082945674e-01 
5.950000e-01  3.566458134652912e-01 
6.000000e-01  5.108737237739449e-01 
6.050000e-01  6.640044190816284e-01 
6.100000e-01  8.005586392211854e-01 
6.150000e-01  9.068942032154789e-01 
6.200000e-01  9.728534663235082e-01 
6.250000e-01  9.948307176205768e-01 
6.300000e-01  9.953021418963408e-01 
6.350000e-01  9.952330164606075e-01 
6.400000e-01  9.952442502580734e-01 
6.450000e-01  9.952409442999446e-01 
6.500000e-01  9.952519912272522e-01 
6.550000e-01  9.951828041735152e-01 
6.600000e-01  9.956012813166628e-01 
6.650000e-01  9.908415992958155e-01 
6.700000e-01  9.503502518301503e-01 
6.750000e-01  8.661074041240135e-01 
6.800000e-01  7.452615116546123e-01 
6.850000e-01  5.996750590507791e-01 
6.900000e-01  4.439931011557675e-01 
6.950000e-01  2.939742399762768e-01 
7.000000e-01  1.647533529120341e-01 
7.050000e-01  6.914642675528845e-02 
7.100000e-01  1.594162922373514e-02 
7.150000e-01  4.418762661269325e-03 
7.200000e-01  4.814235542004116e-03 
7.250000e-01  4.748952047944907e-03 
7.300000e-01  4.758997964241800e-03 
7.350000e-01  4.757220010937833e-03 
7.400000e-01  4.758226926550026e-03 
7.450000e-01  4.752809191792059e-03 
7.500000e-01  4.786895945713731e-03 
7.550000e-01  4.574420519301832e-03 
7.600000e-01  6.260503157391339e-03 
7.650000e-01  3.580993294423050e-02 
7.700000e-01  1.095839450296176e-01 
7.750000e-01  2.222450847903258e-01 
7.800000e-01  3.628791684667373e-01 
7.850000e-01  5.173892187997148e-01 
7.900000e-01  6.701443180155879e-01 
7.950000e-01  8.057067136099212e-01 
8.000000e-01  9.105453927435033e-01 
8.050000e-01  9.746863349538052e-01 
8.100000e-01  9.950030885656718e-01 
8.150000e-01  9.952779403448374e-01 
8.200000e-01  9.952365135830933e-01 
8.250000e-01  9.952431571054523e-01 
8.300000e-01  9.952410549821770e-01 
8.350000e-01  9.952480162763434e-01 
8.400000e-01  9.952040103226202e-01 
8.450000e-01  9.954752731012685e-01 
8.500000e-01  9.814807770099219e-01 
8.550000e-01  9.248843846778808e-01 
8.600000e-01  8.263680523205612e-01 
8.650000e-01  6.951050527884097e-01 
8.700000e-01  5.441423718986856e-01 
8.750000e-01  3.887193874213092e-01 
8.800000e-01  2.445666035328616e-01 
8.850000e-01  1.261707126133969e-01 
8.900000e-01  4.511279823678944e-02 
8.950000e-01  8.030950773785628e-03 
9.000000e-01  4.447411624625210e-03 
9.050000e-01  4.808332998456569e-03 
9.100000e-01  4.749729395642600e-03 
9.150000e-01  4.755197268067979e-03 
9.200000e-01  4.777974328081520e-03 
9.250000e-01  4.626699736040641e-03 
9.300000e-01  5.749038830156877e-03 
9.350000e-01  3.221192418991285e-02 
9.400000e-01  1.028771913556517e-01 
9.450000e-01  2.130425448071452e-01 
9.500000e-01  3.520890150885752e-01 
9.550000e-01  5.060961475505340e-01 
9.600000e-01  6.594881585905065e-01 
9.650000e-01  7.967569699251812e-01 
9.700000e-01  9.041804857268673e-01 
9.750000e-01  9.714689030585205e-01 
9.800000e-01  9.946875236940774e-01 
9.850000e-01  9.953209602079852e-01 
9.900000e-01  9.952299477009180e-01 
9.950000e-01  9.952443918430754e-01 
1.000000e+00  9.952417983975930e-01 
