TITLE ="t=0.030365" 
VARIABLES = "x"                 "phi" 
ZONE I=201, ZONETYPE=Ordered, DATAPACKING=POINT
0.000000e+00  1.015172292931645e+00 
5.000000e-03  9.274524891368754e-01 
1.000000e-02  8.401696267384224e-01 
1.500000e-02  7.437239141368165e-01 
2.000000e-02  6.406823551508992e-01 
2.500000e-02  5.368480056681679e-01 
3.000000e-02  4.397261535994411e-01 
3.500000e-02  3.567490749042815e-01 
4.000000e-02  2.938630698411268e-01 
4.500000e-02  2.546179192152657e-01 
5.000000e-02  2.398409460094932e-01 
5.500000e-02  2.478763272692230e-01 
6.000000e-02  2.751813895917780e-01 
6.500000e-02  3.169942328485210e-01 
7.000000e-02  3.679217823200875e-01 
7.500000e-02  4.224506555739253e-01 
8.000000e-02  4.754141161396011e-01 
8.500000e-02  5.224099939935003e-01 
9.000000e-02  5.601310874737437e-01 
9.500000e-02  5.865634695258907e-01 
1.000000e-01  6.010260081312597e-01 
1.050000e-01  6.040560617314872e-01 
1.100000e-01  5.971768876634388e-01 
1.150000e-01  5.825978180287661e-01 
1.200000e-01  5.628954980792507e-01 
1.250000e-01  5.407120776984827e-01 
1.300000e-01  5.184944582232679e-01 
1.350000e-01  4.982911240409233e-01 
1.400000e-01  4.816176249040208e-01 
1.450000e-01  4.693955260043955e-01 
1.500000e-01  4.619618357455089e-01 
1.550000e-01  4.591379370450508e-01 
1.600000e-01  4.603410174571902e-01 
1.650000e-01  4.647183266044265e-01 
1.700000e-01  4.712853230926258e-01 
1.750000e-01  4.790519163737543e-01 
1.800000e-01  4.871253413136532e-01 
1.850000e-01  4.947828277920344e-01 
1.900000e-01  5.015116429648507e-01 
1.950000e-01  5.070179930153762e-01 
2.000000e-01  5.112094227957699e-01 
2.050000e-01  5.141575220832771e-01 
2.100000e-01  5.160488092078187e-01 
2.150000e-01  5.171316439579665e-01 
2.200000e-01  5.176661005708226e-01 
2.250000e-01  5.178821835470242e-01 
2.300000e-01  5.179498970178600e-01 
2.350000e-01  5.179627590881338e-01 
2.400000e-01  5.179346058395813e-01 
2.450000e-01  5.178081069389221e-01 
2.500000e-01  5.174723991382900e-01 
2.550000e-01  5.167866575333201e-01 
2.600000e-01  5.156062409579297e-01 
2.650000e-01  5.138082079459092e-01 
2.700000e-01  5.113134262500628e-01 
2.750000e-01  5.081031104277072e-01 
2.800000e-01  5.042283416133901e-01 
2.850000e-01  4.998118840456914e-01 
2.900000e-01  4.950423576903188e-01 
2.950000e-01  4.901615083513899e-01 
3.000000e-01  4.854458964189138e-01 
3.050000e-01  4.811847698829973e-01 
3.100000e-01  4.776561710881495e-01 
3.150000e-01  4.751034346387216e-01 
3.200000e-01  4.737141631621085e-01 
3.250000e-01  4.736035288394941e-01 
3.300000e-01  4.748033640273871e-01 
3.350000e-01  4.772580049798335e-01 
3.400000e-01  4.808272757327189e-01 
3.450000e-01  4.852963865739794e-01 
3.500000e-01  4.903919201031045e-01 
3.550000e-01  4.958025390721745e-01 
3.600000e-01  5.012026266602500e-01 
3.650000e-01  5.062768087535091e-01 
3.700000e-01  5.107432420615474e-01 
3.750000e-01  5.143736921449624e-01 
3.800000e-01  5.170087562094940e-01 
3.850000e-01  5.185670671425963e-01 
3.900000e-01  5.190478909098999e-01 
3.950000e-01  5.185271351716962e-01 
4.000000e-01  5.171473615856282e-01 
4.050000e-01  5.151028862126427e-01 
4.100000e-01  5.126214233949984e-01 
4.150000e-01  5.099439539939009e-01 
4.200000e-01  5.073045680614693e-01 
4.250000e-01  5.049119471679976e-01 
4.300000e-01  5.029339279038957e-01 
4.350000e-01  5.014862525899416e-01 
4.400000e-01  5.006262023174316e-01 
4.450000e-01  5.003513625564334e-01 
4.500000e-01  5.006033342477867e-01 
4.550000e-01  5.012758105310222e-01 
4.600000e-01  5.022261203178906e-01 
4.650000e-01  5.032891148469866e-01 
4.700000e-01  5.042921528698472e-01 
4.750000e-01  5.050699262256425e-01 
4.800000e-01  5.054779543838389e-01 
4.850000e-01  5.054037512621581e-01 
4.900000e-01  5.047749117038157e-01 
4.950000e-01  5.035636556744598e-01 
5.000000e-01  5.017876804270309e-01 
5.050000e-01  4.995074790474971e-01 
5.100000e-01  4.968205636284110e-01 
5.150000e-01  4.938532611050711e-01 
5.200000e-01  4.907509116175183e-01 
5.250000e-01  4.876673802780201e-01 
5.300000e-01  4.847547870489870e-01 
5.350000e-01  4.821542675493007e-01 
5.400000e-01  4.799884102289338e-01 
5.450000e-01  4.783557913402695e-01 
5.500000e-01  4.773277745057134e-01 
5.550000e-01  4.769474867570094e-01 
5.600000e-01  4.772306584774932e-01 
5.650000e-01  4.781678477554541e-01 
5.700000e-01  4.797274797866593e-01 
5.750000e-01  4.818591284355254e-01 
5.800000e-01  4.844965476086379e-01 
5.850000e-01  4.875601111042368e-01 
5.900000e-01  4.909585177938136e-01 
5.950000e-01  4.945898342979526e-01 
6.000000e-01  4.983421466973444e-01 
6.050000e-01  5.020942446019658e-01 
6.100000e-01  5.057168391551474e-01 
6.150000e-01  5.090748048869437e-01 
6.200000e-01  5.120308295776064e-01 
6.250000e-01  5.144506655774310e-01 
6.300000e-01  5.162099221277978e-01 
6.350000e-01  5.172020532569276e-01 
6.400000e-01  5.173469186507850e-01 
6.450000e-01  5.165990666866199e-01 
6.500000e-01  5.149547480671584e-01 
6.550000e-01  5.124566458968279e-01 
6.600000e-01  5.091954214740658e-01 
6.650000e-01  5.053074253860473e-01 
6.700000e-01  5.009682920494777e-01 
6.750000e-01  4.963825848821461e-01 
6.800000e-01  4.917701357493469e-01 
6.850000e-01  4.873501648687710e-01 
6.900000e-01  4.833246153393327e-01 
6.950000e-01  4.798623389831579e-01 
7.000000e-01  4.770857934018747e-01 
7.050000e-01  4.750617417124436e-01 
7.100000e-01  4.737970969113144e-01 
7.150000e-01  4.732405543645802e-01 
7.200000e-01  4.732900587988446e-01 
7.250000e-01  4.738055196180112e-01 
7.300000e-01  4.746255901466528e-01 
7.350000e-01  4.755868313293120e-01 
7.400000e-01  4.765432486528757e-01 
7.450000e-01  4.773840668974904e-01 
7.500000e-01  4.780477134878692e-01 
7.550000e-01  4.785303154419331e-01 
7.600000e-01  4.788875492614064e-01 
7.650000e-01  4.792293662719223e-01 
7.700000e-01  4.797078783584760e-01 
7.750000e-01  4.804994504342172e-01 
7.800000e-01  4.817827240058303e-01 
7.850000e-01  4.837148153892254e-01 
7.900000e-01  4.864082316515295e-01 
7.950000e-01  4.899110871130311e-01 
8.000000e-01  4.941929682933597e-01 
8.050000e-01  4.991382986424673e-01 
8.100000e-01  5.045483384984005e-01 
8.150000e-01  5.101520899789259e-01 
8.200000e-01  5.156254516352338e-01 
8.250000e-01  5.206170847620595e-01 
8.300000e-01  5.247787097926279e-01 
8.350000e-01  5.277970273350833e-01 
8.400000e-01  5.294242069970230e-01 
8.450000e-01  5.295039303821170e-01 
8.500000e-01  5.279903067358190e-01 
8.550000e-01  5.249575726127341e-01 
8.600000e-01  5.205992948581886e-01 
8.650000e-01  5.152167565377790e-01 
8.700000e-01  5.091972373980735e-01 
8.750000e-01  5.029839058813569e-01 
8.800000e-01  4.970399108791999e-01 
8.850000e-01  4.918098959497310e-01 
8.900000e-01  4.876824780406954e-01 
8.950000e-01  4.849571968540033e-01 
9.000000e-01  4.838190544180438e-01 
9.050000e-01  4.843230720142012e-01 
9.100000e-01  4.863903669414463e-01 
9.150000e-01  4.898161841984092e-01 
9.200000e-01  4.942892040070167e-01 
9.250000e-01  4.994203830276593e-01 
9.300000e-01  5.047786720265847e-01 
9.350000e-01  5.099302763779305e-01 
9.400000e-01  5.144777628373405e-01 
9.450000e-01  5.180953128205303e-01 
9.500000e-01  5.205567866284279e-01 
9.550000e-01  5.217539601047045e-01 
9.600000e-01  5.217032528706430e-01 
9.650000e-01  5.205403866701144e-01 
9.700000e-01  5.185035813945966e-01 
9.750000e-01  5.159070020832559e-01 
9.800000e-01  5.131071083013670e-01 
9.850000e-01  5.104652395159044e-01 
9.900000e-01  5.083101307706968e-01 
9.950000e-01  5.069040554282186e-01 
1.000000e+00  5.064159332272522e-01 
