TITLE ="t=147.103639" 
VARIABLES = "x"                 "phi" 
ZONE I=201, ZONETYPE=Ordered, DATAPACKING=POINT
0.000000e+00  1.016564287029214e+00 
5.000000e-03  9.243658910891721e-01 
1.000000e-02  8.056587008171733e-01 
1.500000e-02  6.583333427724768e-01 
2.000000e-02  4.970867387795169e-01 
2.500000e-02  3.382106467812294e-01 
3.000000e-02  1.977547275580721e-01 
3.500000e-02  8.973443945783457e-02 
4.000000e-02  2.441118587465276e-02 
4.500000e-02  4.739608728562112e-03 
5.000000e-02  4.699644142374235e-03 
5.500000e-02  4.623432742803989e-03 
6.000000e-02  5.474365617855933e-03 
6.500000e-02  3.022212980306115e-02 
7.000000e-02  9.919208668699542e-02 
7.500000e-02  2.080214604395851e-01 
8.000000e-02  3.462338583810377e-01 
8.500000e-02  4.999928135542837e-01 
9.000000e-02  6.537442149403527e-01 
9.500000e-02  7.919364816531594e-01 
1.000000e-01  9.007415018032893e-01 
1.050000e-01  9.697010168820592e-01 
1.100000e-01  9.944907481933727e-01 
1.150000e-01  9.953466167791841e-01 
1.200000e-01  9.952256078233325e-01 
1.250000e-01  9.952517765998314e-01 
1.300000e-01  9.952005159217940e-01 
1.350000e-01  9.954961079452177e-01 
1.400000e-01  9.819066252678202e-01 
1.450000e-01  9.258414693543929e-01 
1.500000e-01  8.277769815729578e-01 
1.550000e-01  6.968275265615796e-01 
1.600000e-01  5.460047178066707e-01 
1.650000e-01  3.905324534526490e-01 
1.700000e-01  2.461465695995135e-01 
1.750000e-01  1.273594487001039e-01 
1.800000e-01  4.579703757634969e-02 
1.850000e-01  8.178749074879570e-03 
1.900000e-01  4.506605871105390e-03 
1.950000e-01  4.465529151454228e-03 
2.000000e-01  1.507595322825617e-02 
2.050000e-01  6.701400740291877e-02 
2.100000e-01  1.615219881008906e-01 
2.150000e-01  2.899597803776733e-01 
2.200000e-01  4.396000017394249e-01 
2.250000e-01  5.953496174570676e-01 
2.300000e-01  7.414426703204972e-01 
2.350000e-01  8.631781606432646e-01 
2.400000e-01  9.485918038281358e-01 
2.450000e-01  9.903541754595400e-01 
2.500000e-01  9.956265467385792e-01 
2.550000e-01  9.951253782253263e-01 
2.600000e-01  9.955834108803970e-01 
2.650000e-01  9.837035171018486e-01 
2.700000e-01  9.299996622842747e-01 
2.750000e-01  8.339613642778289e-01 
2.800000e-01  7.044346562118950e-01 
2.850000e-01  5.542701995523047e-01 
2.900000e-01  3.986190185362062e-01 
2.950000e-01  2.532364054549477e-01 
3.000000e-01  1.327449289865863e-01 
3.050000e-01  4.896648675640655e-02 
3.100000e-01  8.976853477701323e-03 
3.150000e-01  4.405025658402444e-03 
3.200000e-01  4.816525867062660e-03 
3.250000e-01  4.744174735356189e-03 
3.300000e-01  4.783649652958613e-03 
3.350000e-01  4.601301572622442e-03 
3.400000e-01  5.983963078605574e-03 
3.450000e-01  3.394142834461628e-02 
3.500000e-01  1.061231203868756e-01 
3.550000e-01  2.175093739015136e-01 
3.600000e-01  3.573363138337546e-01 
3.650000e-01  5.115966245531613e-01 
3.700000e-01  6.646867295794562e-01 
3.750000e-01  8.011318531477839e-01 
3.800000e-01  9.073020408154213e-01 
3.850000e-01  9.730598622118570e-01 
3.900000e-01  9.948510533076559e-01 
3.950000e-01  9.952992961562714e-01 
4.000000e-01  9.952333516024909e-01 
4.050000e-01  9.952437609248357e-01 
4.100000e-01  9.952421553601205e-01 
4.150000e-01  9.952424242521579e-01 
4.200000e-01  9.952423990570842e-01 
4.250000e-01  9.952424279878317e-01 
4.300000e-01  9.952423959851447e-01 
4.350000e-01  9.952427094974413e-01 
4.400000e-01  9.952408172941924e-01 
4.450000e-01  9.952530266943408e-01 
4.500000e-01  9.951741370748310e-01 
4.550000e-01  9.956475324823925e-01 
4.600000e-01  9.880773705291942e-01 
4.650000e-01  9.413613157144582e-01 
4.700000e-01  8.514583040244068e-01 
4.750000e-01  7.263637138830172e-01 
4.800000e-01  5.784250197429980e-01 
4.850000e-01  4.225470463741516e-01 
4.900000e-01  2.745096114545210e-01 
4.950000e-01  1.492284539850621e-01 
5.000000e-01  5.907228960424854e-02 
5.050000e-01  1.207288707011920e-02 
5.100000e-01  4.352369955145172e-03 
5.150000e-01  4.825841102696994e-03 
5.200000e-01  4.746899118229754e-03 
5.250000e-01  4.759078805042127e-03 
5.300000e-01  4.757153127024866e-03 
5.350000e-01  4.757434136389421e-03 
5.400000e-01  4.757367417314053e-03 
5.450000e-01  4.757375087930419e-03 
5.500000e-01  4.757242617169490e-03 
5.550000e-01  4.757954921729372e-03 
5.600000e-01  4.753269964537541e-03 
5.650000e-01  4.783255389027514e-03 
5.700000e-01  4.595984886106423e-03 
5.750000e-01  6.038928271887840e-03 
5.800000e-01  3.432624421069259e-02 
5.850000e-01  1.068396507293462e-01 
5.900000e-01  2.184920949214604e-01 
5.950000e-01  3.584882541765702e-01 
6.000000e-01  5.128020066357885e-01 
6.050000e-01  6.658239174767651e-01 
6.100000e-01  8.020867350023594e-01 
6.150000e-01  9.079809065348953e-01 
6.200000e-01  9.734027067878653e-01 
6.250000e-01  9.948844130637987e-01 
6.300000e-01  9.952948008933278e-01 
6.350000e-01  9.952341469492086e-01 
6.400000e-01  9.952440412129553e-01 
6.450000e-01  9.952408910964758e-01 
6.500000e-01  9.952522436802775e-01 
6.550000e-01  9.951808462327943e-01 
6.600000e-01  9.956119552826488e-01 
6.650000e-01  9.905072928860363e-01 
6.700000e-01  9.491299824002299e-01 
6.750000e-01  8.640696213942881e-01 
6.800000e-01  7.426013576772342e-01 
6.850000e-01  5.966589265808485e-01 
6.900000e-01  4.409266890879153e-01 
6.950000e-01  2.911686928001434e-01 
7.000000e-01  1.624909412058500e-01 
7.050000e-01  6.764787905656701e-02 
7.100000e-01  1.532454262309569e-02 
7.150000e-01  4.400181351784274e-03 
7.200000e-01  4.817505015742007e-03 
7.250000e-01  4.748411430472819e-03 
7.300000e-01  4.759045424602670e-03 
7.350000e-01  4.757174694961017e-03 
7.400000e-01  4.758222446403811e-03 
7.450000e-01  4.752652072925427e-03 
7.500000e-01  4.787730155852814e-03 
7.550000e-01  4.569290075630892e-03 
7.600000e-01  6.315415696949131e-03 
7.650000e-01  3.616250974101923e-02 
7.700000e-01  1.102319428553521e-01 
7.750000e-01  2.231288500054444e-01 
7.800000e-01  3.639113350624642e-01 
7.850000e-01  5.184659416277448e-01 
7.900000e-01  6.711568734079819e-01 
7.950000e-01  8.065534684643461e-01 
8.000000e-01  9.111433109263416e-01 
8.050000e-01  9.749830910792098e-01 
8.100000e-01  9.950292160408637e-01 
8.150000e-01  9.952741681088523e-01 
8.200000e-01  9.952370976478732e-01 
8.250000e-01  9.952430693293273e-01 
8.300000e-01  9.952409946174066e-01 
8.350000e-01  9.952484693356394e-01 
8.400000e-01  9.952010495819965e-01 
8.450000e-01  9.954925977928730e-01 
8.500000e-01  9.818391755333050e-01 
8.550000e-01  9.256906389243441e-01 
8.600000e-01  8.275559078112766e-01 
8.650000e-01  6.965583974011970e-01 
8.700000e-01  5.457150936106051e-01 
8.750000e-01  3.902521521471106e-01 
8.800000e-01  2.459044156320124e-01 
8.850000e-01  1.271801185468897e-01 
8.900000e-01  4.569815968649932e-02 
8.950000e-01  8.166252527314859e-03 
9.000000e-01  4.440442516052285e-03 
9.050000e-01  4.809573204807342e-03 
9.100000e-01  4.749533275414300e-03 
9.150000e-01  4.755368190592006e-03 
9.200000e-01  4.777162461805700e-03 
9.250000e-01  4.631740701373004e-03 
9.300000e-01  5.704054684423977e-03 
9.350000e-01  3.186324151998151e-02 
9.400000e-01  1.022176165145991e-01 
9.450000e-01  2.121318736597057e-01 
9.500000e-01  3.510169640654007e-01 
9.550000e-01  5.049704099722493e-01 
9.600000e-01  6.584223268643379e-01 
9.650000e-01  7.958580331548916e-01 
9.700000e-01  9.035367809319658e-01 
9.750000e-01  9.711378922077245e-01 
9.800000e-01  9.946516354179555e-01 
9.850000e-01  9.953255579688186e-01 
9.900000e-01  9.952292312812557e-01 
9.950000e-01  9.952445299624960e-01 
1.000000e+00  9.952417833683597e-01 
