TITLE ="t=0.058414" 
VARIABLES = "x"                 "phi" 
ZONE I=201, ZONETYPE=Ordered, DATAPACKING=POINT
0.000000e+00  1.007236312582397e+00 
5.000000e-03  9.624871979184639e-01 
1.000000e-02  9.183050167996332e-01 
1.500000e-02  8.500914505949932e-01 
2.000000e-02  7.594624336624066e-01 
2.500000e-02  6.518405614798639e-01 
3.000000e-02  5.354297352164087e-01 
3.500000e-02  4.198423408711564e-01 
4.000000e-02  3.147096002532443e-01 
4.500000e-02  2.283995265077148e-01 
5.000000e-02  1.669877680038569e-01 
5.500000e-02  1.336822030631202e-01 
6.000000e-02  1.288676903438767e-01 
6.500000e-02  1.506429238687837e-01 
7.000000e-02  1.953901541515599e-01 
7.500000e-02  2.581367716758655e-01 
8.000000e-02  3.328745390310835e-01 
8.500000e-02  4.129962325028741e-01 
9.000000e-02  4.918526926236008e-01 
9.500000e-02  5.633530176210549e-01 
1.000000e-01  6.225091248432844e-01 
1.050000e-01  6.658330252672853e-01 
1.100000e-01  6.915259941813144e-01 
1.150000e-01  6.994512828297287e-01 
1.200000e-01  6.909369309656339e-01 
1.250000e-01  6.684806707933294e-01 
1.300000e-01  6.354139244354027e-01 
1.350000e-01  5.955522444995047e-01 
1.400000e-01  5.528448282846293e-01 
1.450000e-01  5.110394014158256e-01 
1.500000e-01  4.733875252235675e-01 
1.550000e-01  4.424182299205029e-01 
1.600000e-01  4.198014761636159e-01 
1.650000e-01  4.063094573837673e-01 
1.700000e-01  4.018683173342313e-01 
1.750000e-01  4.056810251459501e-01 
1.800000e-01  4.163969733935174e-01 
1.850000e-01  4.323045427153545e-01 
1.900000e-01  4.515263195381609e-01 
1.950000e-01  4.722002917947463e-01 
2.000000e-01  4.926335138082107e-01 
2.050000e-01  5.114180467789994e-01 
2.100000e-01  5.275030983705590e-01 
2.150000e-01  5.402221771732545e-01 
2.200000e-01  5.492790650197894e-01 
2.250000e-01  5.547005808804265e-01 
2.300000e-01  5.567667677575796e-01 
2.350000e-01  5.559300322330138e-01 
2.400000e-01  5.527340826784231e-01 
2.450000e-01  5.477416634353294e-01 
2.500000e-01  5.414775345710380e-01 
2.550000e-01  5.343903113252624e-01 
2.600000e-01  5.268339892523131e-01 
2.650000e-01  5.190675114528748e-01 
2.700000e-01  5.112687960157889e-01 
2.750000e-01  5.035583803750070e-01 
2.800000e-01  4.960273192171842e-01 
2.850000e-01  4.887641705908920e-01 
2.900000e-01  4.818767158453301e-01 
2.950000e-01  4.755053144954420e-01 
3.000000e-01  4.698262910932008e-01 
3.050000e-01  4.650452797792018e-01 
3.100000e-01  4.613818301392666e-01 
3.150000e-01  4.590476664174452e-01 
3.200000e-01  4.582217048120044e-01 
3.250000e-01  4.590252351206331e-01 
3.300000e-01  4.615005710577494e-01 
3.350000e-01  4.655960095840305e-01 
3.400000e-01  4.711591812039280e-01 
3.450000e-01  4.779399089597192e-01 
3.500000e-01  4.856026287581878e-01 
3.550000e-01  4.937473727741246e-01 
3.600000e-01  5.019373960517834e-01 
3.650000e-01  5.097308354540226e-01 
3.700000e-01  5.167134027328082e-01 
3.750000e-01  5.225290623959993e-01 
3.800000e-01  5.269059176412250e-01 
3.850000e-01  5.296750701211191e-01 
3.900000e-01  5.307809492485204e-01 
3.950000e-01  5.302824305088998e-01 
4.000000e-01  5.283448916706619e-01 
4.050000e-01  5.252241188351556e-01 
4.100000e-01  5.212436175349221e-01 
4.150000e-01  5.167673694522493e-01 
4.200000e-01  5.121703757044016e-01 
4.250000e-01  5.078094259136364e-01 
4.300000e-01  5.039964242282198e-01 
4.350000e-01  5.009763020920870e-01 
4.400000e-01  4.989110851522309e-01 
4.450000e-01  4.978711072076467e-01 
4.500000e-01  4.978337362980926e-01 
4.550000e-01  4.986893567263070e-01 
4.600000e-01  5.002537893337460e-01 
4.650000e-01  5.022858730065539e-01 
4.700000e-01  5.045086028659740e-01 
4.750000e-01  5.066320419613876e-01 
4.800000e-01  5.083761980883353e-01 
4.850000e-01  5.094921774857853e-01 
4.900000e-01  5.097801721743054e-01 
4.950000e-01  5.091031766896735e-01 
5.000000e-01  5.073957255247863e-01 
5.050000e-01  5.046673559470255e-01 
5.100000e-01  5.010008967920246e-01 
5.150000e-01  4.965460338554350e-01 
5.200000e-01  4.915088857854628e-01 
5.250000e-01  4.861385271584804e-01 
5.300000e-01  4.807115101732755e-01 
5.350000e-01  4.755154618344052e-01 
5.400000e-01  4.708327754698527e-01 
5.450000e-01  4.669252879169432e-01 
5.500000e-01  4.640206585216000e-01 
5.550000e-01  4.623009704038240e-01 
5.600000e-01  4.618938861358715e-01 
5.650000e-01  4.628665319063154e-01 
5.700000e-01  4.652221691377625e-01 
5.750000e-01  4.688996404256445e-01 
5.800000e-01  4.737755358593745e-01 
5.850000e-01  4.796689971229779e-01 
5.900000e-01  4.863490399432701e-01 
5.950000e-01  4.935442152242958e-01 
6.000000e-01  5.009543396554786e-01 
6.050000e-01  5.082639122373348e-01 
6.100000e-01  5.151567070353397e-01 
6.150000e-01  5.213309119177155e-01 
6.200000e-01  5.265140851157791e-01 
6.250000e-01  5.304771392761978e-01 
6.300000e-01  5.330465439355594e-01 
6.350000e-01  5.341139652429712e-01 
6.400000e-01  5.336426376228420e-01 
6.450000e-01  5.316698880344966e-01 
6.500000e-01  5.283054133151365e-01 
6.550000e-01  5.237251480778148e-01 
6.600000e-01  5.181608528506005e-01 
6.650000e-01  5.118858870737734e-01 
6.700000e-01  5.051979829179875e-01 
6.750000e-01  4.984001647138444e-01 
6.800000e-01  4.917812194002777e-01 
6.850000e-01  4.855972722811605e-01 
6.900000e-01  4.800560272861913e-01 
6.950000e-01  4.753050774983258e-01 
7.000000e-01  4.714253860018955e-01 
7.050000e-01  4.684306041761147e-01 
7.100000e-01  4.662723742143574e-01 
7.150000e-01  4.648512040557474e-01 
7.200000e-01  4.640319593342742e-01 
7.250000e-01  4.636625411628346e-01 
7.300000e-01  4.635939588609623e-01 
7.350000e-01  4.636998030712425e-01 
7.400000e-01  4.638931049380665e-01 
7.450000e-01  4.641387433659991e-01 
7.500000e-01  4.644599288223880e-01 
7.550000e-01  4.649378234355843e-01 
7.600000e-01  4.657040098426877e-01 
7.650000e-01  4.669262371549227e-01 
7.700000e-01  4.687885839105060e-01 
7.750000e-01  4.714678144842063e-01 
7.800000e-01  4.751082004466912e-01 
7.850000e-01  4.797973748951807e-01 
7.900000e-01  4.855458436312434e-01 
7.950000e-01  4.922725693876313e-01 
8.000000e-01  4.997985753749331e-01 
8.050000e-01  5.078498122373721e-01 
8.100000e-01  5.160696591315033e-01 
8.150000e-01  5.240404740779518e-01 
8.200000e-01  5.313126773110181e-01 
8.250000e-01  5.374390505175447e-01 
8.300000e-01  5.420113520640091e-01 
8.350000e-01  5.446960376134991e-01 
8.400000e-01  5.452658535694169e-01 
8.450000e-01  5.436243244602285e-01 
8.500000e-01  5.398206566094470e-01 
8.550000e-01  5.340532985684472e-01 
8.600000e-01  5.266613019321570e-01 
8.650000e-01  5.181036696624288e-01 
8.700000e-01  5.089279895817141e-01 
8.750000e-01  4.997307196484217e-01 
8.800000e-01  4.911123870448246e-01 
8.850000e-01  4.836315581354230e-01 
8.900000e-01  4.777616418646005e-01 
8.950000e-01  4.738543762721665e-01 
9.000000e-01  4.721132512248503e-01 
9.050000e-01  4.725792228827030e-01 
9.100000e-01  4.751299815968266e-01 
9.150000e-01  4.794928483820186e-01 
9.200000e-01  4.852701876628925e-01 
9.250000e-01  4.919751194824635e-01 
9.300000e-01  4.990743777163916e-01 
9.350000e-01  5.060344806671587e-01 
9.400000e-01  5.123670388472973e-01 
9.450000e-01  5.176690781142773e-01 
9.500000e-01  5.216547165905714e-01 
9.550000e-01  5.241753603557807e-01 
9.600000e-01  5.252266879715043e-01 
9.650000e-01  5.249419589155901e-01 
9.700000e-01  5.235724765565606e-01 
9.750000e-01  5.214572388158847e-01 
9.800000e-01  5.189848114334310e-01 
9.850000e-01  5.165511727078969e-01 
9.900000e-01  5.145176415868054e-01 
9.950000e-01  5.131729781562104e-01 
1.000000e+00  5.127033353634922e-01 
