TITLE ="t=0.000504" 
VARIABLES = "x"                 "phi" 
ZONE I=201, ZONETYPE=Ordered, DATAPACKING=POINT
0.000000e+00  8.863862656942937e-01 
5.000000e-03  6.573042465590844e-01 
1.000000e-02  4.679514416404461e-01 
1.500000e-02  4.008266525505592e-01 
2.000000e-02  4.051095020354219e-01 
2.500000e-02  4.425957397809175e-01 
3.000000e-02  4.849963103821874e-01 
3.500000e-02  5.143336210356102e-01 
4.000000e-02  5.252625083846483e-01 
4.500000e-02  5.211242992417265e-01 
5.000000e-02  5.088792857639123e-01 
5.500000e-02  4.953131326603939e-01 
6.000000e-02  4.852128645856332e-01 
6.500000e-02  4.811047838721597e-01 
7.000000e-02  4.836087421224317e-01 
7.500000e-02  4.917689665550256e-01 
8.000000e-02  5.032990746147454e-01 
8.500000e-02  5.150095825115856e-01 
9.000000e-02  5.236040244497683e-01 
9.500000e-02  5.267012299976009e-01 
1.000000e-01  5.236686257532277e-01 
1.050000e-01  5.158480510216412e-01 
1.100000e-01  5.060281055439835e-01 
1.150000e-01  4.973805040152831e-01 
1.200000e-01  4.923087833990495e-01 
1.250000e-01  4.916586710714893e-01 
1.300000e-01  4.945568714788777e-01 
1.350000e-01  4.988871029388806e-01 
1.400000e-01  5.021851630520076e-01 
1.450000e-01  5.026086356281269e-01 
1.500000e-01  4.996324755895978e-01 
1.550000e-01  4.942272317043379e-01 
1.600000e-01  4.884620721228293e-01 
1.650000e-01  4.846860318151591e-01 
1.700000e-01  4.846039333182163e-01 
1.750000e-01  4.886110242930238e-01 
1.800000e-01  4.956516298084155e-01 
1.850000e-01  5.036510082427680e-01 
1.900000e-01  5.103278535445673e-01 
1.950000e-01  5.140393512620768e-01 
2.000000e-01  5.143115043828256e-01 
2.050000e-01  5.118620544393540e-01 
2.100000e-01  5.081589681487876e-01 
2.150000e-01  5.047589614481454e-01 
2.200000e-01  5.027387129382254e-01 
2.250000e-01  5.024412035576320e-01 
2.300000e-01  5.035721880116146e-01 
2.350000e-01  5.055068101740526e-01 
2.400000e-01  5.075986839607952e-01 
2.450000e-01  5.093472158456948e-01 
2.500000e-01  5.104135748579389e-01 
2.550000e-01  5.105811512215257e-01 
2.600000e-01  5.097626982497834e-01 
2.650000e-01  5.080723298488483e-01 
2.700000e-01  5.058833984957900e-01 
2.750000e-01  5.037674117366671e-01 
2.800000e-01  5.022802174816777e-01 
2.850000e-01  5.016776842799983e-01 
2.900000e-01  5.017164132758658e-01 
2.950000e-01  5.016702031666815e-01 
3.000000e-01  5.005859806195776e-01 
3.050000e-01  4.976832698750713e-01 
3.100000e-01  4.927366746176265e-01 
3.150000e-01  4.862923911146275e-01 
3.200000e-01  4.796319911100684e-01 
3.250000e-01  4.744727749781629e-01 
3.300000e-01  4.724673863322725e-01 
3.350000e-01  4.746372972017314e-01 
3.400000e-01  4.809337249999540e-01 
3.450000e-01  4.901238520468419e-01 
3.500000e-01  5.001072848314050e-01 
3.550000e-01  5.085889991903410e-01 
3.600000e-01  5.138537444044627e-01 
3.650000e-01  5.153119863855617e-01 
3.700000e-01  5.135815940258051e-01 
3.750000e-01  5.100965972041392e-01 
3.800000e-01  5.064652395991732e-01 
3.850000e-01  5.038943461149706e-01 
3.900000e-01  5.029085291503251e-01 
3.950000e-01  5.033968276981586e-01 
4.000000e-01  5.048518524863556e-01 
4.050000e-01  5.066241566894867e-01 
4.100000e-01  5.080927622979071e-01 
4.150000e-01  5.087629377032676e-01 
4.200000e-01  5.083506335710720e-01 
4.250000e-01  5.068739929550344e-01 
4.300000e-01  5.047000001406736e-01 
4.350000e-01  5.024681327842818e-01 
4.400000e-01  5.008682734101293e-01 
4.450000e-01  5.003502427556867e-01 
4.500000e-01  5.009100643030672e-01 
4.550000e-01  5.020778034154433e-01 
4.600000e-01  5.031304504322454e-01 
4.650000e-01  5.034326414273104e-01 
4.700000e-01  5.027393735495148e-01 
4.750000e-01  5.013134215194528e-01 
4.800000e-01  4.997999379958460e-01 
4.850000e-01  4.989129250440963e-01 
4.900000e-01  4.990722908101828e-01 
4.950000e-01  5.001550494249238e-01 
5.000000e-01  5.014828416647220e-01 
5.050000e-01  5.020734861316637e-01 
5.100000e-01  5.010677034601699e-01 
5.150000e-01  4.981492993668279e-01 
5.200000e-01  4.937561614450354e-01 
5.250000e-01  4.889564498717490e-01 
5.300000e-01  4.850183134978984e-01 
5.350000e-01  4.828620045558566e-01 
5.400000e-01  4.826623830982512e-01 
5.450000e-01  4.838118576431385e-01 
5.500000e-01  4.852752183263306e-01 
5.550000e-01  4.861588543482355e-01 
5.600000e-01  4.861942871265491e-01 
5.650000e-01  4.858732291279116e-01 
5.700000e-01  4.861538637615747e-01 
5.750000e-01  4.878895853386795e-01 
5.800000e-01  4.912863509992028e-01 
5.850000e-01  4.956867271618433e-01 
5.900000e-01  4.998091758849227e-01 
5.950000e-01  5.023306118648200e-01 
6.000000e-01  5.025184318155316e-01 
6.050000e-01  5.005920662908800e-01 
6.100000e-01  4.976365618032713e-01 
6.150000e-01  4.951233075270011e-01 
6.200000e-01  4.942874355291011e-01 
6.250000e-01  4.956630999031396e-01 
6.300000e-01  4.989668123655057e-01 
6.350000e-01  5.033194820447038e-01 
6.400000e-01  5.076320346310298e-01 
6.450000e-01  5.109406753134867e-01 
6.500000e-01  5.125710873889022e-01 
6.550000e-01  5.121549244412364e-01 
6.600000e-01  5.096097595520530e-01 
6.650000e-01  5.051682348041402e-01 
6.700000e-01  4.994362260304758e-01 
6.750000e-01  4.933695368403647e-01 
6.800000e-01  4.880689524307799e-01 
6.850000e-01  4.844112542864213e-01 
6.900000e-01  4.826789232029056e-01 
6.950000e-01  4.824118976535254e-01 
7.000000e-01  4.826177106574042e-01 
7.050000e-01  4.822783763552060e-01 
7.100000e-01  4.809034443909425e-01 
7.150000e-01  4.788235293916559e-01 
7.200000e-01  4.770431837717261e-01 
7.250000e-01  4.767111280363767e-01 
7.300000e-01  4.784820857593040e-01 
7.350000e-01  4.821108969762234e-01 
7.400000e-01  4.864963334671076e-01 
7.450000e-01  4.901511407963076e-01 
7.500000e-01  4.918556181109892e-01 
7.550000e-01  4.911732158614102e-01 
7.600000e-01  4.885981567840061e-01 
7.650000e-01  4.853017381306542e-01 
7.700000e-01  4.826323650528772e-01 
7.750000e-01  4.816112148448887e-01 
7.800000e-01  4.826260616810893e-01 
7.850000e-01  4.854045040942553e-01 
7.900000e-01  4.892194530209957e-01 
7.950000e-01  4.932037359683961e-01 
8.000000e-01  4.966446194689931e-01 
8.050000e-01  4.991723545119896e-01 
8.100000e-01  5.008146871309295e-01 
8.150000e-01  5.019347364344910e-01 
8.200000e-01  5.030916913895457e-01 
8.250000e-01  5.048646732023117e-01 
8.300000e-01  5.076703715504723e-01 
8.350000e-01  5.115984811609852e-01 
8.400000e-01  5.162953929091524e-01 
8.450000e-01  5.209429281979169e-01 
8.500000e-01  5.243854541991841e-01 
8.550000e-01  5.254293387228028e-01 
8.600000e-01  5.232636040524613e-01 
8.650000e-01  5.178569372564857e-01 
8.700000e-01  5.101350653517881e-01 
8.750000e-01  5.017922985741957e-01 
8.800000e-01  4.947465255653632e-01 
8.850000e-01  4.904387963736139e-01 
8.900000e-01  4.892967118337392e-01 
8.950000e-01  4.906384925910145e-01 
9.000000e-01  4.930883985792156e-01 
9.050000e-01  4.953046326237088e-01 
9.100000e-01  4.966432169578253e-01 
9.150000e-01  4.974076898258203e-01 
9.200000e-01  4.985597217806524e-01 
9.250000e-01  5.010657534966242e-01 
9.300000e-01  5.052563382241597e-01 
9.350000e-01  5.105593959043809e-01 
9.400000e-01  5.157457463561935e-01 
9.450000e-01  5.195288050937478e-01 
9.500000e-01  5.211660310913708e-01 
9.550000e-01  5.207287565569624e-01 
9.600000e-01  5.189211967617289e-01 
9.650000e-01  5.166027060431909e-01 
9.700000e-01  5.143294290978475e-01 
9.750000e-01  5.121872013565562e-01 
9.800000e-01  5.099764032226682e-01 
9.850000e-01  5.075752998486183e-01 
9.900000e-01  5.052038706088018e-01 
9.950000e-01  5.033979655792963e-01 
1.000000e+00  5.027170137959061e-01 
