TITLE ="t=177.103639" 
VARIABLES = "x"                 "phi" 
ZONE I=201, ZONETYPE=Ordered, DATAPACKING=POINT
0.000000e+00  1.016564377169169e+00 
5.000000e-03  9.243654825609312e-01 
1.000000e-02  8.056577304084186e-01 
1.500000e-02  6.583319451341011e-01 
2.000000e-02  4.970850951791807e-01 
2.500000e-02  3.382089663014871e-01 
3.000000e-02  1.977532257151717e-01 
3.500000e-02  8.973331678211162e-02 
4.000000e-02  2.441060727498350e-02 
4.500000e-02  4.739634395781806e-03 
5.000000e-02  4.699261730504426e-03 
5.500000e-02  4.625555217502830e-03 
6.000000e-02  5.456463981411338e-03 
6.500000e-02  3.006826992026338e-02 
7.000000e-02  9.889669056065228e-02 
7.500000e-02  2.076111544461847e-01 
8.000000e-02  3.457490345754660e-01 
8.500000e-02  4.994821691706276e-01 
9.000000e-02  6.532592858894215e-01 
9.500000e-02  7.915259723814660e-01 
1.000000e-01  9.004458126778069e-01 
1.050000e-01  9.695467670633359e-01 
1.100000e-01  9.944724725371593e-01 
1.150000e-01  9.953488507076715e-01 
1.200000e-01  9.952250901550374e-01 
1.250000e-01  9.952530460685692e-01 
1.300000e-01  9.951928242803603e-01 
1.350000e-01  9.955406599295932e-01 
1.400000e-01  9.829313620821020e-01 
1.450000e-01  9.281902103790568e-01 
1.500000e-01  8.312587689869628e-01 
1.550000e-01  7.011021143725221e-01 
1.600000e-01  5.506422136827409e-01 
1.650000e-01  3.950627832460589e-01 
1.700000e-01  2.501112981320404e-01 
1.750000e-01  1.303626387843252e-01 
1.800000e-01  4.755331110464221e-02 
1.850000e-01  8.604269677152367e-03 
1.900000e-01  4.493908925567034e-03 
1.950000e-01  4.440220058681801e-03 
2.000000e-01  1.374076891506625e-02 
2.050000e-01  6.362342137716731e-02 
2.100000e-01  1.563338210455409e-01 
2.150000e-01  2.834792157518247e-01 
2.200000e-01  4.324788931902709e-01 
2.250000e-01  5.883106964210734e-01 
2.300000e-01  7.351997810252141e-01 
2.350000e-01  8.583572537792961e-01 
2.400000e-01  9.456563969042250e-01 
2.450000e-01  9.894830212257358e-01 
2.500000e-01  9.956467517552940e-01 
2.550000e-01  9.951178030833613e-01 
2.600000e-01  9.956072439262821e-01 
2.650000e-01  9.844241436412873e-01 
2.700000e-01  9.317327056808972e-01 
2.750000e-01  8.365699840827712e-01 
2.800000e-01  7.076642636300445e-01 
2.850000e-01  5.577958519378807e-01 
2.900000e-01  4.020829944592824e-01 
2.950000e-01  2.562876603450314e-01 
3.000000e-01  1.350779889286755e-01 
3.050000e-01  5.035814733435581e-02 
3.100000e-01  9.350744322840060e-03 
3.150000e-01  4.392211841412393e-03 
3.200000e-01  4.818853666707430e-03 
3.250000e-01  4.743879451972611e-03 
3.300000e-01  4.783525112600576e-03 
3.350000e-01  4.602503777053519e-03 
3.400000e-01  5.972312689299554e-03 
3.450000e-01  3.385888451421935e-02 
3.500000e-01  1.059691139962518e-01 
3.550000e-01  2.172979660243791e-01 
3.600000e-01  3.570883622204291e-01 
3.650000e-01  5.113370535546270e-01 
3.700000e-01  6.644417396194710e-01 
3.750000e-01  8.009260364577918e-01 
3.800000e-01  9.071556050495549e-01 
3.850000e-01  9.729857668680656e-01 
3.900000e-01  9.948437627943898e-01 
3.950000e-01  9.953002873964171e-01 
4.000000e-01  9.952331954330932e-01 
4.050000e-01  9.952437859940231e-01 
4.100000e-01  9.952421509832967e-01 
4.150000e-01  9.952424232564191e-01 
4.200000e-01  9.952423963133157e-01 
4.250000e-01  9.952424242985783e-01 
4.300000e-01  9.952423912152006e-01 
4.350000e-01  9.952427037318391e-01 
4.400000e-01  9.952408101049999e-01 
4.450000e-01  9.952530208348221e-01 
4.500000e-01  9.951741143019631e-01 
4.550000e-01  9.956475994657307e-01 
4.600000e-01  9.879936242867065e-01 
4.650000e-01  9.411192030955152e-01 
4.700000e-01  8.510746708214241e-01 
4.750000e-01  7.258757488677028e-01 
4.800000e-01  5.778817848274762e-01 
4.850000e-01  4.220037105469617e-01 
4.900000e-01  2.740213549775637e-01 
4.950000e-01  1.488443716924855e-01 
5.000000e-01  5.882962342088287e-02 
5.050000e-01  1.198858201399725e-02 
5.100000e-01  4.352380035706091e-03 
5.150000e-01  4.825824643731849e-03 
5.200000e-01  4.746885985782954e-03 
5.250000e-01  4.759064187518578e-03 
5.300000e-01  4.757137691710885e-03 
5.350000e-01  4.757417811101820e-03 
5.400000e-01  4.757350076311302e-03 
5.450000e-01  4.757357616400722e-03 
5.500000e-01  4.757219338622923e-03 
5.550000e-01  4.757962179063139e-03 
5.600000e-01  4.753075382262607e-03 
5.650000e-01  4.784356775831230e-03 
5.700000e-01  4.589203634861882e-03 
5.750000e-01  6.106694165614063e-03 
5.800000e-01  3.479118783859766e-02 
5.850000e-01  1.077028380793007e-01 
5.900000e-01  2.196744750898803e-01 
5.950000e-01  3.598730900136500e-01 
6.000000e-01  5.142500566379602e-01 
6.050000e-01  6.671890108747912e-01 
6.100000e-01  8.032318617466214e-01 
6.150000e-01  9.087936987926744e-01 
6.200000e-01  9.738115069807549e-01 
6.250000e-01  9.949232542853456e-01 
6.300000e-01  9.952894034763401e-01 
6.350000e-01  9.952349753379128e-01 
6.400000e-01  9.952438861056825e-01 
6.450000e-01  9.952408532117427e-01 
6.500000e-01  9.952524083103921e-01 
6.550000e-01  9.951795267235657e-01 
6.600000e-01  9.956190920654363e-01 
6.650000e-01  9.902508206583263e-01 
6.700000e-01  9.482248401924643e-01 
6.750000e-01  8.625684869034205e-01 
6.800000e-01  7.406482658911401e-01 
6.850000e-01  5.944496026961079e-01 
6.900000e-01  4.386851496682473e-01 
6.950000e-01  2.891224420638104e-01 
7.000000e-01  1.608458722363862e-01 
7.050000e-01  6.656440263173020e-02 
7.100000e-01  1.488668288092790e-02 
7.150000e-01  4.388704414546213e-03 
7.200000e-01  4.819528131794813e-03 
7.250000e-01  4.748069586993621e-03 
7.300000e-01  4.759069168937654e-03 
7.350000e-01  4.757141020056290e-03 
7.400000e-01  4.758217950252642e-03 
7.450000e-01  4.752533156522876e-03 
7.500000e-01  4.788358700207601e-03 
7.550000e-01  4.565429617012381e-03 
7.600000e-01  6.357380740689107e-03 
7.650000e-01  3.642817283312144e-02 
7.700000e-01  1.107191507676497e-01 
7.750000e-01  2.237927015733647e-01 
7.800000e-01  3.646861852736473e-01 
7.850000e-01  5.192738223830281e-01 
7.900000e-01  6.719162010415792e-01 
7.950000e-01  8.071880252882585e-01 
8.000000e-01  9.115908779614412e-01 
8.050000e-01  9.752045657816040e-01 
8.100000e-01  9.950483909384059e-01 
8.150000e-01  9.952713775824840e-01 
8.200000e-01  9.952375298305840e-01 
8.250000e-01  9.952430047440036e-01 
8.300000e-01  9.952409531268231e-01 
8.350000e-01  9.952487900717230e-01 
8.400000e-01  9.951989580454779e-01 
8.450000e-01  9.955047746510136e-01 
8.500000e-01  9.821017675400729e-01 
8.550000e-01  9.262857308300132e-01 
8.600000e-01  8.284348081707065e-01 
8.650000e-01  6.976352088086395e-01 
8.700000e-01  5.468815477813880e-01 
8.750000e-01  3.913900523184715e-01 
8.800000e-01  2.468986642954693e-01 
8.850000e-01  1.279314894320700e-01 
8.900000e-01  4.613537283297271e-02 
8.950000e-01  8.269258794584206e-03 
9.000000e-01  4.435355677817477e-03 
9.050000e-01  4.810482084708054e-03 
9.100000e-01  4.749390237608412e-03 
9.150000e-01  4.755499086003736e-03 
9.200000e-01  4.776539229253172e-03 
9.250000e-01  4.635621419670913e-03 
9.300000e-01  5.669876936970976e-03 
9.350000e-01  3.159420320029234e-02 
9.400000e-01  1.017074778321369e-01 
9.450000e-01  2.114268218129281e-01 
9.500000e-01  3.501864410994068e-01 
9.550000e-01  5.040978387478376e-01 
9.600000e-01  6.575957518961343e-01 
9.650000e-01  7.951604301772280e-01 
9.700000e-01  9.030367161357373e-01 
9.750000e-01  9.708800709053742e-01 
9.800000e-01  9.946232306196346e-01 
9.850000e-01  9.953291571855907e-01 
9.900000e-01  9.952286695108591e-01 
9.950000e-01  9.952446381613456e-01 
1.000000e+00  9.952417715189852e-01 
