TITLE ="t=0.005778" 
VARIABLES = "x"                 "phi" 
ZONE I=201, ZONETYPE=Ordered, DATAPACKING=POINT
0.000000e+00  1.011103148688497e+00 
5.000000e-03  8.463812426149147e-01 
1.000000e-02  6.862766557603701e-01 
1.500000e-02  5.565836101857615e-01 
2.000000e-02  4.532479764127492e-01 
2.500000e-02  3.809187745654932e-01 
3.000000e-02  3.423523415895324e-01 
3.500000e-02  3.344859694792616e-01 
4.000000e-02  3.504466081848052e-01 
4.500000e-02  3.817764983158726e-01 
5.000000e-02  4.200476193873723e-01 
5.500000e-02  4.580499975464811e-01 
6.000000e-02  4.905346514403300e-01 
6.500000e-02  5.145064100177790e-01 
7.000000e-02  5.291143867673088e-01 
7.500000e-02  5.352234215476463e-01 
8.000000e-02  5.347944989641460e-01 
8.500000e-02  5.302264948827572e-01 
9.000000e-02  5.237933661446322e-01 
9.500000e-02  5.172617823065779e-01 
1.000000e-01  5.117172882376047e-01 
1.050000e-01  5.075783762853432e-01 
1.100000e-01  5.047449361512246e-01 
1.150000e-01  5.028132258101374e-01 
1.200000e-01  5.012928201064519e-01 
1.250000e-01  4.997774136733318e-01 
1.300000e-01  4.980441727764442e-01 
1.350000e-01  4.960788388685916e-01 
1.400000e-01  4.940409831741185e-01 
1.450000e-01  4.921931857837982e-01 
1.500000e-01  4.908194318534032e-01 
1.550000e-01  4.901535147236064e-01 
1.600000e-01  4.903304620687934e-01 
1.650000e-01  4.913656844058228e-01 
1.700000e-01  4.931597225726095e-01 
1.750000e-01  4.955221873687959e-01 
1.800000e-01  4.982068290697466e-01 
1.850000e-01  5.009500596683789e-01 
1.900000e-01  5.035068052723027e-01 
1.950000e-01  5.056794892257387e-01 
2.000000e-01  5.073377169240258e-01 
2.050000e-01  5.084276476401507e-01 
2.100000e-01  5.089711245513622e-01 
2.150000e-01  5.090555126024413e-01 
2.200000e-01  5.088159601303222e-01 
2.250000e-01  5.084124633208448e-01 
2.300000e-01  5.080046012527819e-01 
2.350000e-01  5.077270233347270e-01 
2.400000e-01  5.076686431104153e-01 
2.450000e-01  5.078580278871697e-01 
2.500000e-01  5.082567508903802e-01 
2.550000e-01  5.087616097668137e-01 
2.600000e-01  5.092157220278802e-01 
2.650000e-01  5.094276490207591e-01 
2.700000e-01  5.091968878180075e-01 
2.750000e-01  5.083432928989807e-01 
2.800000e-01  5.067372583418579e-01 
2.850000e-01  5.043268868153797e-01 
2.900000e-01  5.011580574993990e-01 
2.950000e-01  4.973834955177645e-01 
3.000000e-01  4.932578299527239e-01 
3.050000e-01  4.891172771247018e-01 
3.100000e-01  4.853448803702314e-01 
3.150000e-01  4.823248452647623e-01 
3.200000e-01  4.803919309872010e-01 
3.250000e-01  4.797835273404352e-01 
3.300000e-01  4.806024627361903e-01 
3.350000e-01  4.827974625653114e-01 
3.400000e-01  4.861655511288531e-01 
3.450000e-01  4.903769801248022e-01 
3.500000e-01  4.950191981904772e-01 
3.550000e-01  4.996528128197819e-01 
3.600000e-01  5.038702207140868e-01 
3.650000e-01  5.073471051819951e-01 
3.700000e-01  5.098784412533247e-01 
3.750000e-01  5.113937168536118e-01 
3.800000e-01  5.119501202616009e-01 
3.850000e-01  5.117065908882689e-01 
3.900000e-01  5.108849983981449e-01 
3.950000e-01  5.097266226945169e-01 
4.000000e-01  5.084522358291278e-01 
4.050000e-01  5.072325366569915e-01 
4.100000e-01  5.061729229764118e-01 
4.150000e-01  5.053132930101500e-01 
4.200000e-01  5.046404898691417e-01 
4.250000e-01  5.041087641466803e-01 
4.300000e-01  5.036626116615129e-01 
4.350000e-01  5.032566212725653e-01 
4.400000e-01  5.028683287935447e-01 
4.450000e-01  5.025020980901292e-01 
4.500000e-01  5.021842334864077e-01 
4.550000e-01  5.019513990641038e-01 
4.600000e-01  5.018356434127380e-01 
4.650000e-01  5.018497493133687e-01 
4.700000e-01  5.019762771366229e-01 
4.750000e-01  5.021627226161630e-01 
4.800000e-01  5.023239187913451e-01 
4.850000e-01  5.023514469487143e-01 
4.900000e-01  5.021286118095033e-01 
4.950000e-01  5.015486418783859e-01 
5.000000e-01  5.005332804339988e-01 
5.050000e-01  4.990488547596719e-01 
5.100000e-01  4.971172237720499e-01 
5.150000e-01  4.948196519422515e-01 
5.200000e-01  4.922925669802610e-01 
5.250000e-01  4.897152404900744e-01 
5.300000e-01  4.872905756160028e-01 
5.350000e-01  4.852212628855211e-01 
5.400000e-01  4.836844267510356e-01 
5.450000e-01  4.828083788564627e-01 
5.500000e-01  4.826550889395358e-01 
5.550000e-01  4.832114032368117e-01 
5.600000e-01  4.843908927161663e-01 
5.650000e-01  4.860466181103961e-01 
5.700000e-01  4.879932838945586e-01 
5.750000e-01  4.900355288523599e-01 
5.800000e-01  4.919978039713641e-01 
5.850000e-01  4.937507148206795e-01 
5.900000e-01  4.952290405669897e-01 
5.950000e-01  4.964379064380227e-01 
6.000000e-01  4.974456126624584e-01 
6.050000e-01  4.983640678049376e-01 
6.100000e-01  4.993201771947016e-01 
6.150000e-01  5.004234105357994e-01 
6.200000e-01  5.017357092087827e-01 
6.250000e-01  5.032496608403818e-01 
6.300000e-01  5.048794700042744e-01 
6.350000e-01  5.064669382952318e-01 
6.400000e-01  5.078018811927306e-01 
6.450000e-01  5.086537025757519e-01 
6.500000e-01  5.088087533418979e-01 
6.550000e-01  5.081070209815870e-01 
6.600000e-01  5.064718230090478e-01 
6.650000e-01  5.039274540422148e-01 
6.700000e-01  5.006018826767915e-01 
6.750000e-01  4.967141701507765e-01 
6.800000e-01  4.925487914286523e-01 
6.850000e-01  4.884210365336877e-01 
6.900000e-01  4.846388503393711e-01 
6.950000e-01  4.814667087353008e-01 
7.000000e-01  4.790964822436982e-01 
7.050000e-01  4.776288993488941e-01 
7.100000e-01  4.770674709391432e-01 
7.150000e-01  4.773248805856855e-01 
7.200000e-01  4.782401624778455e-01 
7.250000e-01  4.796036939671325e-01 
7.300000e-01  4.811862528185910e-01 
7.350000e-01  4.827681760532528e-01 
7.400000e-01  4.841649807191792e-01 
7.450000e-01  4.852465817527398e-01 
7.500000e-01  4.859483362192306e-01 
7.550000e-01  4.862733881509947e-01 
7.600000e-01  4.862869939413435e-01 
7.650000e-01  4.861044876642087e-01 
7.700000e-01  4.858751475200745e-01 
7.750000e-01  4.857643680961604e-01 
7.800000e-01  4.859362431284380e-01 
7.850000e-01  4.865380353690066e-01 
7.900000e-01  4.876872483976541e-01 
7.950000e-01  4.894613462615854e-01 
8.000000e-01  4.918897867619245e-01 
8.050000e-01  4.949480477767389e-01 
8.100000e-01  4.985537073738264e-01 
8.150000e-01  5.025652295794577e-01 
8.200000e-01  5.067846592132424e-01 
8.250000e-01  5.109656743055254e-01 
8.300000e-01  5.148281834490058e-01 
8.350000e-01  5.180798243151126e-01 
8.400000e-01  5.204434235270432e-01 
8.450000e-01  5.216879777332675e-01 
8.500000e-01  5.216593716545294e-01 
8.550000e-01  5.203062357373899e-01 
8.600000e-01  5.176963540704642e-01 
8.650000e-01  5.140199802725628e-01 
8.700000e-01  5.095782004068871e-01 
8.750000e-01  5.047567803259649e-01 
8.800000e-01  4.999882945337497e-01 
8.850000e-01  4.957072763663328e-01 
8.900000e-01  4.923042721586086e-01 
8.950000e-01  4.900848224103390e-01 
9.000000e-01  4.892385426182962e-01 
9.050000e-01  4.898218453990074e-01 
9.100000e-01  4.917557834029472e-01 
9.150000e-01  4.948384010834458e-01 
9.200000e-01  4.987692210686850e-01 
9.250000e-01  5.031822964916768e-01 
9.300000e-01  5.076837188140844e-01 
9.350000e-01  5.118895246883657e-01 
9.400000e-01  5.154604435575706e-01 
9.450000e-01  5.181306815937190e-01 
9.500000e-01  5.197287740746941e-01 
9.550000e-01  5.201893356230288e-01 
9.600000e-01  5.195552416182715e-01 
9.650000e-01  5.179703921581695e-01 
9.700000e-01  5.156637860531328e-01 
9.750000e-01  5.129262094956379e-01 
9.800000e-01  5.100814301609630e-01 
9.850000e-01  5.074543383530443e-01 
9.900000e-01  5.053389029833861e-01 
9.950000e-01  5.039690041095553e-01 
1.000000e+00  5.034950758318665e-01 
