TITLE ="t=1.928791" 
VARIABLES = "x"                 "phi" 
ZONE I=201, ZONETYPE=Ordered, DATAPACKING=POINT
0.000000e+00  1.000174176774294e+00 
5.000000e-03  9.906816766726285e-01 
1.000000e-02  9.908640612837413e-01 
1.500000e-02  9.565537789187945e-01 
2.000000e-02  8.800574186957406e-01 
2.500000e-02  7.663211238458437e-01 
3.000000e-02  6.258980534378928e-01 
3.500000e-02  4.725962269284464e-01 
4.000000e-02  3.217506452651389e-01 
4.500000e-02  1.884808198141791e-01 
5.000000e-02  8.598834221326020e-02 
5.500000e-02  2.392032606940841e-02 
6.000000e-02  4.924951574508709e-03 
6.500000e-02  4.800699798491193e-03 
7.000000e-02  4.498221016945993e-03 
7.500000e-02  7.414599185524001e-03 
8.000000e-02  4.220412528313605e-02 
8.500000e-02  1.210646908679664e-01 
9.000000e-02  2.377385641409872e-01 
9.500000e-02  3.808480808752056e-01 
1.000000e-01  5.360242456093883e-01 
1.050000e-01  6.875648221456342e-01 
1.100000e-01  8.201673614022417e-01 
1.150000e-01  9.206343272520694e-01 
1.200000e-01  9.795407547498330e-01 
1.250000e-01  9.953621834145600e-01 
1.300000e-01  9.952437089134788e-01 
1.350000e-01  9.951023992311986e-01 
1.400000e-01  9.757898104783490e-01 
1.450000e-01  9.127769968688336e-01 
1.500000e-01  8.088725368836227e-01 
1.550000e-01  6.739347204845684e-01 
1.600000e-01  5.214244129632114e-01 
1.650000e-01  3.667522653156327e-01 
1.700000e-01  2.255668922167614e-01 
1.750000e-01  1.120264209183806e-01 
1.800000e-01  3.714821060646103e-02 
1.850000e-01  6.483371134714014e-03 
1.900000e-01  4.513197836071660e-03 
1.950000e-01  5.045731592643462e-03 
2.000000e-01  2.527758444260563e-02 
2.050000e-01  8.934505149992028e-02 
2.100000e-01  1.941216607215118e-01 
2.150000e-01  3.296403805930896e-01 
2.200000e-01  4.823749193114086e-01 
2.250000e-01  6.368897267679000e-01 
2.300000e-01  7.775533575445399e-01 
2.350000e-01  8.902656015450576e-01 
2.400000e-01  9.641064082260568e-01 
2.450000e-01  9.937254695190224e-01 
2.500000e-01  9.954279781706371e-01 
2.550000e-01  9.952020743822907e-01 
2.600000e-01  9.953091999159360e-01 
2.650000e-01  9.785369821321157e-01 
2.700000e-01  9.184944600654831e-01 
2.750000e-01  8.170829275130563e-01 
2.800000e-01  6.838466560903207e-01 
2.850000e-01  5.320530231989979e-01 
2.900000e-01  3.770304250352068e-01 
2.950000e-01  2.344614720048688e-01 
3.000000e-01  1.186509589530559e-01 
3.050000e-01  4.086865011562441e-02 
3.100000e-01  7.168711714524391e-03 
3.150000e-01  4.526848231697302e-03 
3.200000e-01  4.848745459856650e-03 
3.250000e-01  4.814872920031642e-03 
3.300000e-01  4.909308668014749e-03 
3.350000e-01  4.531652775596664e-03 
3.400000e-01  9.746739896866486e-03 
3.450000e-01  4.933389028462726e-02 
3.500000e-01  1.303414938013450e-01 
3.550000e-01  2.460283241904449e-01 
3.600000e-01  3.852215880392170e-01 
3.650000e-01  5.341587801453278e-01 
3.700000e-01  6.780968587424518e-01 
3.750000e-01  8.030273962499570e-01 
3.800000e-01  8.974907888042841e-01 
3.850000e-01  9.549232514731310e-01 
3.900000e-01  9.783752420576788e-01 
3.950000e-01  9.835198899557012e-01 
4.000000e-01  9.828602484366908e-01 
4.050000e-01  9.812936924875091e-01 
4.100000e-01  9.803388854704196e-01 
4.150000e-01  9.804642703242669e-01 
4.200000e-01  9.816601819603910e-01 
4.250000e-01  9.836217554579157e-01 
4.300000e-01  9.858938871513709e-01 
4.350000e-01  9.880389922052095e-01 
4.400000e-01  9.897689982187640e-01 
4.450000e-01  9.908105427303697e-01 
4.500000e-01  9.892958579846629e-01 
4.550000e-01  9.776138202840863e-01 
4.600000e-01  9.463483049622807e-01 
4.650000e-01  8.911813408675879e-01 
4.700000e-01  8.113881121676484e-01 
4.750000e-01  7.089087106773733e-01 
4.800000e-01  5.883887068013050e-01 
4.850000e-01  4.573230547094772e-01 
4.900000e-01  3.257197644543749e-01 
4.950000e-01  2.049860748545607e-01 
5.000000e-01  1.063181005282782e-01 
5.050000e-01  3.901631548725273e-02 
5.100000e-01  8.335473258677326e-03 
5.150000e-01  4.893186409566791e-03 
5.200000e-01  5.128785760385893e-03 
5.250000e-01  5.057470408865508e-03 
5.300000e-01  5.038835247981282e-03 
5.350000e-01  5.015141818211884e-03 
5.400000e-01  4.988272552456812e-03 
5.450000e-01  4.959573369037231e-03 
5.500000e-01  4.929452998704229e-03 
5.550000e-01  4.898824525565075e-03 
5.600000e-01  4.863156288300073e-03 
5.650000e-01  4.854642402329449e-03 
5.700000e-01  4.668001362508630e-03 
5.750000e-01  5.784717940216601e-03 
5.800000e-01  3.219551206951655e-02 
5.850000e-01  1.027131905393762e-01 
5.900000e-01  2.127104934312853e-01 
5.950000e-01  3.516105473494912e-01 
6.000000e-01  5.055213445590934e-01 
6.050000e-01  6.588856285785892e-01 
6.100000e-01  7.962041654411313e-01 
6.150000e-01  9.037538013839461e-01 
6.200000e-01  9.712327284142280e-01 
6.250000e-01  9.946583149097654e-01 
6.300000e-01  9.953230895368897e-01 
6.350000e-01  9.952282784300294e-01 
6.400000e-01  9.952438071958452e-01 
6.450000e-01  9.952402248569704e-01 
6.500000e-01  9.952505351366415e-01 
6.550000e-01  9.951883253650290e-01 
6.600000e-01  9.955680794297248e-01 
6.650000e-01  9.916540071693501e-01 
6.700000e-01  9.535449697283361e-01 
6.750000e-01  8.715213602332115e-01 
6.800000e-01  7.523787897330592e-01 
6.850000e-01  6.077841540035908e-01 
6.900000e-01  4.522728992155011e-01 
6.950000e-01  3.015850711627460e-01 
7.000000e-01  1.709295829933760e-01 
7.050000e-01  7.328475047726239e-02 
7.100000e-01  1.770972499455364e-02 
7.150000e-01  4.486723926118713e-03 
7.200000e-01  4.802417510155836e-03 
7.250000e-01  4.750855838283038e-03 
7.300000e-01  4.758785029262383e-03 
7.350000e-01  4.757342243871946e-03 
7.400000e-01  4.758231888596420e-03 
7.450000e-01  4.753206282225155e-03 
7.500000e-01  4.784775389483749e-03 
7.550000e-01  4.587502023665017e-03 
7.600000e-01  6.124717816587941e-03 
7.650000e-01  3.491262398558936e-02 
7.700000e-01  1.079275180838336e-01 
7.750000e-01  2.199816800263907e-01 
7.800000e-01  3.602324090213437e-01 
7.850000e-01  5.146253169571177e-01 
7.900000e-01  6.675423196043214e-01 
7.950000e-01  8.035277800550612e-01 
8.000000e-01  9.090032592993522e-01 
8.050000e-01  9.739164067784540e-01 
8.100000e-01  9.949329724912279e-01 
8.150000e-01  9.952878946848291e-01 
8.200000e-01  9.952349728845851e-01 
8.250000e-01  9.952433906243484e-01 
8.300000e-01  9.952412404422754e-01 
8.350000e-01  9.952466951320024e-01 
8.400000e-01  9.952126714639263e-01 
8.450000e-01  9.954239802846364e-01 
8.500000e-01  9.805034520280400e-01 
8.550000e-01  9.227180305853540e-01 
8.600000e-01  8.231922267589568e-01 
8.650000e-01  6.912302954444484e-01 
8.700000e-01  5.399581457393244e-01 
8.750000e-01  3.846494320164354e-01 
8.800000e-01  2.410222414867778e-01 
8.850000e-01  1.235051699440584e-01 
8.900000e-01  4.357794092825285e-02 
8.950000e-01  7.690222024699767e-03 
9.000000e-01  4.466472300637257e-03 
9.050000e-01  4.804969173592049e-03 
9.100000e-01  4.750266724705420e-03 
9.150000e-01  4.754772486449188e-03 
9.200000e-01  4.779984038655454e-03 
9.250000e-01  4.614294862405005e-03 
9.300000e-01  5.862678073969642e-03 
9.350000e-01  3.306692770212551e-02 
9.400000e-01  1.044871236218124e-01 
9.450000e-01  2.152610830522673e-01 
9.500000e-01  3.546974859801375e-01 
9.550000e-01  5.088324652262871e-01 
9.600000e-01  6.620761980005936e-01 
9.650000e-01  7.989369586590840e-01 
9.700000e-01  9.057382816490837e-01 
9.750000e-01  9.722658493006429e-01 
9.800000e-01  9.947712772300700e-01 
9.850000e-01  9.953100068536602e-01 
9.900000e-01  9.952316489810834e-01 
9.950000e-01  9.952440631779438e-01 
1.000000e+00  9.952418336504247e-01 
