TITLE ="t=0.018416" 
VARIABLES = "x"                 "phi" 
ZONE I=201, ZONETYPE=Ordered, DATAPACKING=POINT
0.000000e+00  1.015040146128746e+00 
5.000000e-03  8.978554842065817e-01 
1.000000e-02  7.877539851570262e-01 
1.500000e-02  6.804219289758654e-01 
2.000000e-02  5.745474584073009e-01 
2.500000e-02  4.762205205901631e-01 
3.000000e-02  3.934501090815498e-01 
3.500000e-02  3.323641155625651e-01 
4.000000e-02  2.959134621113692e-01 
4.500000e-02  2.838944370427481e-01 
5.000000e-02  2.935555615216299e-01 
5.500000e-02  3.204145566321144e-01 
6.000000e-02  3.590637195214971e-01 
6.500000e-02  4.038594419528432e-01 
7.000000e-02  4.494846896519741e-01 
7.500000e-02  4.913983013991258e-01 
8.000000e-02  5.261658426213021e-01 
8.500000e-02  5.516489075756694e-01 
9.000000e-02  5.670333982755609e-01 
9.500000e-02  5.727004646861998e-01 
1.000000e-01  5.699736464822479e-01 
1.050000e-01  5.607966849310438e-01 
1.100000e-01  5.473995308887575e-01 
1.150000e-01  5.319982614977604e-01 
1.200000e-01  5.165576414837133e-01 
1.250000e-01  5.026302045707585e-01 
1.300000e-01  4.912745818615564e-01 
1.350000e-01  4.830470611228758e-01 
1.400000e-01  4.780531475699561e-01 
1.450000e-01  4.760407081151815e-01 
1.500000e-01  4.765141183245903e-01 
1.550000e-01  4.788500851296956e-01 
1.600000e-01  4.823998590750326e-01 
1.650000e-01  4.865680804444954e-01 
1.700000e-01  4.908641776840571e-01 
1.750000e-01  4.949270718331166e-01 
1.800000e-01  4.985274097279371e-01 
1.850000e-01  5.015534903104651e-01 
1.900000e-01  5.039875575678197e-01 
1.950000e-01  5.058784849447309e-01 
2.000000e-01  5.073154607929425e-01 
2.050000e-01  5.084055388380703e-01 
2.100000e-01  5.092562439297941e-01 
2.150000e-01  5.099631217899081e-01 
2.200000e-01  5.106013513580173e-01 
2.250000e-01  5.112203133780091e-01 
2.300000e-01  5.118402225286155e-01 
2.350000e-01  5.124504003024705e-01 
2.400000e-01  5.130092852423180e-01 
2.450000e-01  5.134466626571604e-01 
2.500000e-01  5.136687233222916e-01 
2.550000e-01  5.135663839848297e-01 
2.600000e-01  5.130268555247572e-01 
2.650000e-01  5.119478266373837e-01 
2.700000e-01  5.102529814704417e-01 
2.750000e-01  5.079070381131169e-01 
2.800000e-01  5.049282101761153e-01 
2.850000e-01  5.013960395911240e-01 
2.900000e-01  4.974529475939491e-01 
2.950000e-01  4.932985593808348e-01 
3.000000e-01  4.891767752777104e-01 
3.050000e-01  4.853565478734684e-01 
3.100000e-01  4.821082277654030e-01 
3.150000e-01  4.796780211031001e-01 
3.200000e-01  4.782634563203936e-01 
3.250000e-01  4.779927315847828e-01 
3.300000e-01  4.789104104445828e-01 
3.350000e-01  4.809712059691557e-01 
3.400000e-01  4.840426423090914e-01 
3.450000e-01  4.879163351828706e-01 
3.500000e-01  4.923266283161888e-01 
3.550000e-01  4.969744917355003e-01 
3.600000e-01  5.015540341226916e-01 
3.650000e-01  5.057787692099559e-01 
3.700000e-01  5.094049213892790e-01 
3.750000e-01  5.122495247166072e-01 
3.800000e-01  5.142017846867728e-01 
3.850000e-01  5.152270244278127e-01 
3.900000e-01  5.153634037672996e-01 
3.950000e-01  5.147123653835898e-01 
4.000000e-01  5.134243366343215e-01 
4.050000e-01  5.116815455818700e-01 
4.100000e-01  5.096798831801943e-01 
4.150000e-01  5.076115857401245e-01 
4.200000e-01  5.056501760870233e-01 
4.250000e-01  5.039386584991217e-01 
4.300000e-01  5.025814865996203e-01 
4.350000e-01  5.016403833523289e-01 
4.400000e-01  5.011337404513149e-01 
4.450000e-01  5.010390900799226e-01 
4.500000e-01  5.012980293033278e-01 
4.550000e-01  5.018229674604623e-01 
4.600000e-01  5.025051250582859e-01 
4.650000e-01  5.032232976869901e-01 
4.700000e-01  5.038529728881178e-01 
4.750000e-01  5.042754261988442e-01 
4.800000e-01  5.043864161389504e-01 
4.850000e-01  5.041040558522283e-01 
4.900000e-01  5.033753853439554e-01 
4.950000e-01  5.021811351894325e-01 
5.000000e-01  5.005381930595568e-01 
5.050000e-01  4.984993831727688e-01 
5.100000e-01  4.961503553468529e-01 
5.150000e-01  4.936036447030608e-01 
5.200000e-01  4.909902755751935e-01 
5.250000e-01  4.884495985121972e-01 
5.300000e-01  4.861183143233383e-01 
5.350000e-01  4.841198028757944e-01 
5.400000e-01  4.825548979869226e-01 
5.450000e-01  4.814951149788761e-01 
5.500000e-01  4.809790515611576e-01 
5.550000e-01  4.810122791504477e-01 
5.600000e-01  4.815705761408636e-01 
5.650000e-01  4.826058965053642e-01 
5.700000e-01  4.840540886813609e-01 
5.750000e-01  4.858431438137962e-01 
5.800000e-01  4.879007015741122e-01 
5.850000e-01  4.901596901818628e-01 
5.900000e-01  4.925613075015076e-01 
5.950000e-01  4.950550147190736e-01 
6.000000e-01  4.975957422039404e-01 
6.050000e-01  5.001390149535240e-01 
6.100000e-01  5.026351089903677e-01 
6.150000e-01  5.050235805683183e-01 
6.200000e-01  5.072295230045656e-01 
6.250000e-01  5.091626908427740e-01 
6.300000e-01  5.107202133560300e-01 
6.350000e-01  5.117930573487003e-01 
6.400000e-01  5.122757752844630e-01 
6.450000e-01  5.120784834339372e-01 
6.500000e-01  5.111395485131964e-01 
6.550000e-01  5.094371970034979e-01 
6.600000e-01  5.069982484424065e-01 
6.650000e-01  5.039024263014419e-01 
6.700000e-01  5.002811924583124e-01 
6.750000e-01  4.963107219464123e-01 
6.800000e-01  4.921993935692892e-01 
6.850000e-01  4.881709141089986e-01 
6.900000e-01  4.844448152403570e-01 
6.950000e-01  4.812164754251662e-01 
7.000000e-01  4.786389654288071e-01 
7.050000e-01  4.768088734401267e-01 
7.100000e-01  4.757578501635087e-01 
7.150000e-01  4.754509769050960e-01 
7.200000e-01  4.757922794053941e-01 
7.250000e-01  4.766368826102054e-01 
7.300000e-01  4.778085266351861e-01 
7.350000e-01  4.791205335186264e-01 
7.400000e-01  4.803979005510899e-01 
7.450000e-01  4.814980447571274e-01 
7.500000e-01  4.823278493022498e-01 
7.550000e-01  4.828550497527568e-01 
7.600000e-01  4.831126015243427e-01 
7.650000e-01  4.831954224433525e-01 
7.700000e-01  4.832497246868749e-01 
7.750000e-01  4.834559519033853e-01 
7.800000e-01  4.840070375711186e-01 
7.850000e-01  4.850842292629386e-01 
7.900000e-01  4.868330281337570e-01 
7.950000e-01  4.893418429358333e-01 
8.000000e-01  4.926257457505980e-01 
8.050000e-01  4.966172585441243e-01 
8.100000e-01  5.011654348069642e-01 
8.150000e-01  5.060436894406806e-01 
8.200000e-01  5.109659505768748e-01 
8.250000e-01  5.156098473537816e-01 
8.300000e-01  5.196448964290572e-01 
8.350000e-01  5.227630851603124e-01 
8.400000e-01  5.247089289621583e-01 
8.450000e-01  5.253060371301912e-01 
8.500000e-01  5.244774623356484e-01 
8.550000e-01  5.222576175570161e-01 
8.600000e-01  5.187942831721714e-01 
8.650000e-01  5.143401390941584e-01 
8.700000e-01  5.092342647607215e-01 
8.750000e-01  5.038750575951555e-01 
8.800000e-01  4.986869212509581e-01 
8.850000e-01  4.940837641025644e-01 
8.900000e-01  4.904327410718841e-01 
8.950000e-01  4.880217171897025e-01 
9.000000e-01  4.870336204963766e-01 
9.050000e-01  4.875302174353072e-01 
9.100000e-01  4.894469518704411e-01 
9.150000e-01  4.925994284651431e-01 
9.200000e-01  4.967009948758985e-01 
9.250000e-01  5.013897929948639e-01 
9.300000e-01  5.062627136924776e-01 
9.350000e-01  5.109129984525183e-01 
9.400000e-01  5.149678604342994e-01 
9.450000e-01  5.181224903666697e-01 
9.500000e-01  5.201671728142937e-01 
9.550000e-01  5.210049275237472e-01 
9.600000e-01  5.206580342098170e-01 
9.650000e-01  5.192628974797577e-01 
9.700000e-01  5.170538498598809e-01 
9.750000e-01  5.143375636841020e-01 
9.800000e-01  5.114606455933436e-01 
9.850000e-01  5.087736367134040e-01 
9.900000e-01  5.065949769919345e-01 
9.950000e-01  5.051784823875886e-01 
1.000000e+00  5.046875299071503e-01 
