TITLE ="t=0.000113" 
VARIABLES = "x"                 "phi" 
ZONE I=201, ZONETYPE=Ordered, DATAPACKING=POINT
0.000000e+00  7.608851995005989e-01 
5.000000e-03  5.492982012270632e-01 
1.000000e-02  4.372888883771506e-01 
1.500000e-02  4.470314949499307e-01 
2.000000e-02  4.860291375905781e-01 
2.500000e-02  5.124607483599389e-01 
3.000000e-02  5.172999087031276e-01 
3.500000e-02  5.120524028673532e-01 
4.000000e-02  5.094451844959853e-01 
4.500000e-02  5.113356058967794e-01 
5.000000e-02  5.110985776059520e-01 
5.500000e-02  5.027764750621192e-01 
6.000000e-02  4.877846947002426e-01 
6.500000e-02  4.744133439265558e-01 
7.000000e-02  4.716536930513450e-01 
7.500000e-02  4.826596824105293e-01 
8.000000e-02  5.026741552705012e-01 
8.500000e-02  5.224277813078362e-01 
9.000000e-02  5.339156591874005e-01 
9.500000e-02  5.343179706833470e-01 
1.000000e-01  5.259992856502953e-01 
1.050000e-01  5.137213960497360e-01 
1.100000e-01  5.017643209462073e-01 
1.150000e-01  4.927353913658485e-01 
1.200000e-01  4.879225382961966e-01 
1.250000e-01  4.879170374561647e-01 
1.300000e-01  4.925074704997750e-01 
1.350000e-01  4.999899567287441e-01 
1.400000e-01  5.069680344857418e-01 
1.450000e-01  5.095371217361591e-01 
1.500000e-01  5.054972022082020e-01 
1.550000e-01  4.960251625385383e-01 
1.600000e-01  4.853426807436386e-01 
1.650000e-01  4.784262964147031e-01 
1.700000e-01  4.783519893186890e-01 
1.750000e-01  4.850227615070989e-01 
1.800000e-01  4.957706122952259e-01 
1.850000e-01  5.069462036803651e-01 
1.900000e-01  5.153239507367271e-01 
1.950000e-01  5.188739546944765e-01 
2.000000e-01  5.171429332367512e-01 
2.050000e-01  5.114429411412666e-01 
2.100000e-01  5.045820796102576e-01 
2.150000e-01  4.997936238850937e-01 
2.200000e-01  4.991238443025895e-01 
2.250000e-01  5.022472659852439e-01 
2.300000e-01  5.066775647001999e-01 
2.350000e-01  5.094510116634680e-01 
2.400000e-01  5.092268970703534e-01 
2.450000e-01  5.072657403092748e-01 
2.500000e-01  5.063679792649908e-01 
2.550000e-01  5.083386296343060e-01 
2.600000e-01  5.119557229339172e-01 
2.650000e-01  5.134917237665946e-01 
2.700000e-01  5.099308110804209e-01 
2.750000e-01  5.022995279570722e-01 
2.800000e-01  4.956661523036087e-01 
2.850000e-01  4.950203661401529e-01 
2.900000e-01  5.004672119851664e-01 
2.950000e-01  5.065594907277846e-01 
3.000000e-01  5.069556150614302e-01 
3.050000e-01  5.001333574709084e-01 
3.100000e-01  4.904643537221769e-01 
3.150000e-01  4.835582565812123e-01 
3.200000e-01  4.807934395527597e-01 
3.250000e-01  4.788413708898957e-01 
3.300000e-01  4.746196759352680e-01 
3.350000e-01  4.701453031424952e-01 
3.400000e-01  4.716689069275777e-01 
3.450000e-01  4.834433243182674e-01 
3.500000e-01  5.023092597050827e-01 
3.550000e-01  5.188589323694278e-01 
3.600000e-01  5.245920454126047e-01 
3.650000e-01  5.186523990604740e-01 
3.700000e-01  5.080321082936118e-01 
3.750000e-01  5.012530857643666e-01 
3.800000e-01  5.015312142127815e-01 
3.850000e-01  5.054562478394706e-01 
3.900000e-01  5.076088683163609e-01 
3.950000e-01  5.060154747457416e-01 
4.000000e-01  5.032593193467122e-01 
4.050000e-01  5.029959137059529e-01 
4.100000e-01  5.060807735681599e-01 
4.150000e-01  5.100805982610648e-01 
4.200000e-01  5.118609734554966e-01 
4.250000e-01  5.101153395708473e-01 
4.300000e-01  5.057494430702038e-01 
4.350000e-01  5.007786944546012e-01 
4.400000e-01  4.973042882005419e-01 
4.450000e-01  4.968718247211429e-01 
4.500000e-01  4.996676236522219e-01 
4.550000e-01  5.039133189402217e-01 
4.600000e-01  5.066721118789312e-01 
4.650000e-01  5.060835616505810e-01 
4.700000e-01  5.029794585405228e-01 
4.750000e-01  4.999432936199535e-01 
4.800000e-01  4.986591295055410e-01 
4.850000e-01  4.985487337749077e-01 
4.900000e-01  4.982375195884905e-01 
4.950000e-01  4.978532003737001e-01 
5.000000e-01  4.990080042032572e-01 
5.050000e-01  5.022342271074333e-01 
5.100000e-01  5.051026820002719e-01 
5.150000e-01  5.037942288720593e-01 
5.200000e-01  4.968513645110734e-01 
5.250000e-01  4.870837891589133e-01 
5.300000e-01  4.795039875097691e-01 
5.350000e-01  4.774184953861184e-01 
5.400000e-01  4.804247963147923e-01 
5.450000e-01  4.855773243205096e-01 
5.500000e-01  4.897806119787184e-01 
5.550000e-01  4.911820651660363e-01 
5.600000e-01  4.894023762709874e-01 
5.650000e-01  4.855875484924684e-01 
5.700000e-01  4.823172387246956e-01 
5.750000e-01  4.824973021178059e-01 
5.800000e-01  4.873657529591146e-01 
5.850000e-01  4.953275175443016e-01 
5.900000e-01  5.029501375018112e-01 
5.950000e-01  5.072284732271478e-01 
6.000000e-01  5.070167537061178e-01 
6.050000e-01  5.028742547672009e-01 
6.100000e-01  4.964811052576524e-01 
6.150000e-01  4.905607031204744e-01 
6.200000e-01  4.884542975860753e-01 
6.250000e-01  4.922290352944364e-01 
6.300000e-01  5.004477285040143e-01 
6.350000e-01  5.084230977290209e-01 
6.400000e-01  5.118137631084281e-01 
6.450000e-01  5.104340239069968e-01 
6.500000e-01  5.081203225840280e-01 
6.550000e-01  5.084171558192996e-01 
6.600000e-01  5.105749100876147e-01 
6.650000e-01  5.102402631860591e-01 
6.700000e-01  5.041261048060331e-01 
6.750000e-01  4.936369431425304e-01 
6.800000e-01  4.837610726289616e-01 
6.850000e-01  4.787541701128230e-01 
6.900000e-01  4.791542218495194e-01 
6.950000e-01  4.824870187212728e-01 
7.000000e-01  4.858395992599836e-01 
7.050000e-01  4.873061380933849e-01 
7.100000e-01  4.858209538824836e-01 
7.150000e-01  4.811509428763231e-01 
7.200000e-01  4.748508832607263e-01 
7.250000e-01  4.705613673911094e-01 
7.300000e-01  4.719676157993180e-01 
7.350000e-01  4.795772998505103e-01 
7.400000e-01  4.895969212031829e-01 
7.450000e-01  4.965081532689680e-01 
7.500000e-01  4.971438707248064e-01 
7.550000e-01  4.925627625634679e-01 
7.600000e-01  4.864242125501494e-01 
7.650000e-01  4.819505184615426e-01 
7.700000e-01  4.802749941449274e-01 
7.750000e-01  4.808883060810029e-01 
7.800000e-01  4.828888705369300e-01 
7.850000e-01  4.857344249958551e-01 
7.900000e-01  4.892806788442734e-01 
7.950000e-01  4.934394853701050e-01 
8.000000e-01  4.977249925467517e-01 
8.050000e-01  5.010755642258083e-01 
8.100000e-01  5.024457144869572e-01 
8.150000e-01  5.019550237452732e-01 
8.200000e-01  5.013461959804274e-01 
8.250000e-01  5.027815776972138e-01 
8.300000e-01  5.068645631362982e-01 
8.350000e-01  5.120452634789715e-01 
8.400000e-01  5.162802199598395e-01 
8.450000e-01  5.191514209427222e-01 
8.500000e-01  5.218886664046701e-01 
8.550000e-01  5.251063494704783e-01 
8.600000e-01  5.269075010104856e-01 
8.650000e-01  5.238764820847491e-01 
8.700000e-01  5.143585158262316e-01 
8.750000e-01  5.007941088018534e-01 
8.800000e-01  4.886706112342148e-01 
8.850000e-01  4.829236995365606e-01 
8.900000e-01  4.848426567654203e-01 
8.950000e-01  4.917195272553583e-01 
9.000000e-01  4.989464265304758e-01 
9.050000e-01  5.026827302863485e-01 
9.100000e-01  5.016024861213932e-01 
9.150000e-01  4.973188728463702e-01 
9.200000e-01  4.935346718842640e-01 
9.250000e-01  4.940588311628289e-01 
9.300000e-01  5.004372189954231e-01 
9.350000e-01  5.107252928532459e-01 
9.400000e-01  5.205462534452731e-01 
9.450000e-01  5.258233621337864e-01 
9.500000e-01  5.251456352664911e-01 
9.550000e-01  5.201862055095564e-01 
9.600000e-01  5.143365389399561e-01 
9.650000e-01  5.107833695463793e-01 
9.700000e-01  5.109339880853904e-01 
9.750000e-01  5.135938037415189e-01 
9.800000e-01  5.154554174787430e-01 
9.850000e-01  5.132893606422231e-01 
9.900000e-01  5.067653072557633e-01 
9.950000e-01  4.994075407443106e-01 
1.000000e+00  4.961800576385934e-01 
