TITLE ="t=197.103639" 
VARIABLES = "x"                 "phi" 
ZONE I=201, ZONETYPE=Ordered, DATAPACKING=POINT
0.000000e+00  1.016564431935322e+00 
5.000000e-03  9.243652343434717e-01 
1.000000e-02  8.056571408821359e-01 
1.500000e-02  6.583310961858229e-01 
2.000000e-02  4.970840969808776e-01 
2.500000e-02  3.382079458683141e-01 
3.000000e-02  1.977523138934795e-01 
3.500000e-02  8.973263519876984e-02 
4.000000e-02  2.441025569593406e-02 
4.500000e-02  4.739647591818011e-03 
5.000000e-02  4.699040579607546e-03 
5.500000e-02  4.626781844713291e-03 
6.000000e-02  5.446160520938118e-03 
6.500000e-02  2.997915772398363e-02 
7.000000e-02  9.872543475634307e-02 
7.500000e-02  2.073731838876788e-01 
8.000000e-02  3.454677742402360e-01 
8.500000e-02  4.991858691822931e-01 
9.000000e-02  6.529778498715260e-01 
9.500000e-02  7.912876673426446e-01 
1.000000e-01  9.002740932096819e-01 
1.050000e-01  9.694570997516121e-01 
1.100000e-01  9.944617829924549e-01 
1.150000e-01  9.953501489680107e-01 
1.200000e-01  9.952248103716037e-01 
1.250000e-01  9.952536603580794e-01 
1.300000e-01  9.951891716229291e-01 
1.350000e-01  9.955615928911354e-01 
1.400000e-01  9.834784390751702e-01 
1.450000e-01  9.294711013418475e-01 
1.500000e-01  8.331706666223225e-01 
1.550000e-01  7.034582991022652e-01 
1.600000e-01  5.532056883253240e-01 
1.650000e-01  3.975736034474066e-01 
1.700000e-01  2.523152354137416e-01 
1.750000e-01  1.320393683539845e-01 
1.800000e-01  4.854302776385834e-02 
1.850000e-01  8.856396666841614e-03 
1.900000e-01  4.486209456279358e-03 
1.950000e-01  4.432862925472333e-03 
2.000000e-01  1.306163853365881e-02 
2.050000e-01  6.181922868715186e-02 
2.100000e-01  1.535376131784126e-01 
2.150000e-01  2.799628363067504e-01 
2.200000e-01  4.285960099982373e-01 
2.250000e-01  5.844555128037217e-01 
2.300000e-01  7.317635087574631e-01 
2.350000e-01  8.556848437626139e-01 
2.400000e-01  9.440056888178273e-01 
2.450000e-01  9.889607102768257e-01 
2.500000e-01  9.956543710795122e-01 
2.550000e-01  9.951145961447018e-01 
2.600000e-01  9.956181396047572e-01 
2.650000e-01  9.848032046689849e-01 
2.700000e-01  9.326615968880221e-01 
2.750000e-01  8.379762123897430e-01 
2.800000e-01  7.094106594093322e-01 
2.850000e-01  5.597066836606429e-01 
2.900000e-01  4.039643267404186e-01 
2.950000e-01  2.579487489108669e-01 
3.000000e-01  1.363524057963912e-01 
3.050000e-01  5.112371089167580e-02 
3.100000e-01  9.563737897666087e-03 
3.150000e-01  4.385805517651090e-03 
3.200000e-01  4.820026512712244e-03 
3.250000e-01  4.743733140636393e-03 
3.300000e-01  4.783470977505874e-03 
3.350000e-01  4.603069447040239e-03 
3.400000e-01  5.966857731286350e-03 
3.450000e-01  3.382011376704482e-02 
3.500000e-01  1.058967409047822e-01 
3.550000e-01  2.171985956546926e-01 
3.600000e-01  3.569717976546760e-01 
3.650000e-01  5.112150117324633e-01 
3.700000e-01  6.643265392994131e-01 
3.750000e-01  8.008292420576416e-01 
3.800000e-01  9.070867211504350e-01 
3.850000e-01  9.729508924769101e-01 
3.900000e-01  9.948403201663573e-01 
3.950000e-01  9.953007543242143e-01 
4.000000e-01  9.952331214160908e-01 
4.050000e-01  9.952437972724117e-01 
4.100000e-01  9.952421482358024e-01 
4.150000e-01  9.952424219576720e-01 
4.200000e-01  9.952423940455961e-01 
4.250000e-01  9.952424214396290e-01 
4.300000e-01  9.952423877048211e-01 
4.350000e-01  9.952426995876913e-01 
4.400000e-01  9.952408052677369e-01 
4.450000e-01  9.952530157019056e-01 
4.500000e-01  9.951741060813101e-01 
4.550000e-01  9.956476054221646e-01 
4.600000e-01  9.879376059924670e-01 
4.650000e-01  9.409579883911261e-01 
4.700000e-01  8.508195159759432e-01 
4.750000e-01  7.255513932257849e-01 
4.800000e-01  5.775208420552495e-01 
4.850000e-01  4.216428371464170e-01 
4.900000e-01  2.736972001760890e-01 
4.950000e-01  1.485895279974836e-01 
5.000000e-01  5.866879630286632e-02 
5.050000e-01  1.193296270546915e-02 
5.100000e-01  4.352425259855830e-03 
5.150000e-01  4.825806741628475e-03 
5.200000e-01  4.746878415840323e-03 
5.250000e-01  4.759054423712476e-03 
5.300000e-01  4.757127608894691e-03 
5.350000e-01  4.757407137135457e-03 
5.400000e-01  4.757338761992240e-03 
5.450000e-01  4.757346248805396e-03 
5.500000e-01  4.757204118804468e-03 
5.550000e-01  4.757967434544351e-03 
5.600000e-01  4.752945569702795e-03 
5.650000e-01  4.785094711797967e-03 
5.700000e-01  4.584673274696850e-03 
5.750000e-01  6.152810535063431e-03 
5.800000e-01  3.510188338634044e-02 
5.850000e-01  1.082780574306113e-01 
5.900000e-01  2.204614618957355e-01 
5.950000e-01  3.607941171957190e-01 
6.000000e-01  5.152125022208199e-01 
6.050000e-01  6.680957145165094e-01 
6.100000e-01  8.039918200911959e-01 
6.150000e-01  9.093323539079011e-01 
6.200000e-01  9.740814650872557e-01 
6.250000e-01  9.949483802613797e-01 
6.300000e-01  9.952858722614941e-01 
6.350000e-01  9.952355161091010e-01 
6.400000e-01  9.952437840445930e-01 
6.450000e-01  9.952408292219769e-01 
6.500000e-01  9.952525056633007e-01 
6.550000e-01  9.951787242364726e-01 
6.600000e-01  9.956234069123709e-01 
6.650000e-01  9.900779956867793e-01 
6.700000e-01  9.476287846008992e-01 
6.750000e-01  8.615847264798728e-01 
6.800000e-01  7.393713170720962e-01 
6.850000e-01  5.930074921318974e-01 
6.900000e-01  4.372241400018346e-01 
6.950000e-01  2.877908414116468e-01 
7.000000e-01  1.597776701978833e-01 
7.050000e-01  6.586371582413533e-02 
7.100000e-01  1.460737462392286e-02 
7.150000e-01  4.382147185181133e-03 
7.200000e-01  4.820683923282097e-03 
7.250000e-01  4.747870502908149e-03 
7.300000e-01  4.759079863624335e-03 
7.350000e-01  4.757118884737662e-03 
7.400000e-01  4.758214556434196e-03 
7.450000e-01  4.752453710661957e-03 
7.500000e-01  4.788777863105894e-03 
7.550000e-01  4.562858076682180e-03 
7.600000e-01  6.385650662831443e-03 
7.650000e-01  3.660534358325494e-02 
7.700000e-01  1.110435700267367e-01 
7.750000e-01  2.242344473361966e-01 
7.800000e-01  3.652015663971850e-01 
7.850000e-01  5.198109739796671e-01 
7.900000e-01  6.724208756707581e-01 
7.950000e-01  8.076095651664198e-01 
8.000000e-01  9.118879544598615e-01 
8.050000e-01  9.753512555393650e-01 
8.100000e-01  9.950609385370689e-01 
8.150000e-01  9.952695413200545e-01 
8.200000e-01  9.952378142852326e-01 
8.250000e-01  9.952429624191009e-01 
8.300000e-01  9.952409272594124e-01 
8.350000e-01  9.952489947034378e-01 
8.400000e-01  9.951976259565061e-01 
8.450000e-01  9.955125040049607e-01 
8.500000e-01  9.822736089865441e-01 
8.550000e-01  9.266772443774062e-01 
8.600000e-01  8.290140600091348e-01 
8.650000e-01  6.983455940431197e-01 
8.700000e-01  5.476516355213477e-01 
8.750000e-01  3.921417994195439e-01 
8.800000e-01  2.475560178298485e-01 
8.850000e-01  1.284288245632506e-01 
8.900000e-01  4.642546770289584e-02 
8.950000e-01  8.338527419403954e-03 
9.000000e-01  4.432038948832815e-03 
9.050000e-01  4.811076390268096e-03 
9.100000e-01  4.749297023757933e-03 
9.150000e-01  4.755587471862764e-03 
9.200000e-01  4.776117606858082e-03 
9.250000e-01  4.638252043432697e-03 
9.300000e-01  5.646928285189567e-03 
9.350000e-01  3.141149448932607e-02 
9.400000e-01  1.013604202211942e-01 
9.450000e-01  2.109468066757709e-01 
9.500000e-01  3.496207375769547e-01 
9.550000e-01  5.035032659483138e-01 
9.600000e-01  6.570323027291601e-01 
9.650000e-01  7.946846683864210e-01 
9.700000e-01  9.026954106278808e-01 
9.750000e-01  9.707037667027849e-01 
9.800000e-01  9.946035778201729e-01 
9.850000e-01  9.953316270828677e-01 
9.900000e-01  9.952282835171342e-01 
9.950000e-01  9.952447124421686e-01 
1.000000e+00  9.952417633369914e-01 
