TITLE ="t=0.230876" 
VARIABLES = "x"                 "phi" 
ZONE I=201, ZONETYPE=Ordered, DATAPACKING=POINT
0.000000e+00  1.000524129339673e+00 
5.000000e-03  9.891790529492516e-01 
1.000000e-02  9.896428323957398e-01 
1.500000e-02  9.572643118833560e-01 
2.000000e-02  8.833335893346473e-01 
2.500000e-02  7.717965639657108e-01 
3.000000e-02  6.328101480090745e-01 
3.500000e-02  4.800301206271468e-01 
4.000000e-02  3.287869847068136e-01 
4.500000e-02  1.943119783094788e-01 
5.000000e-02  9.001491240812255e-02 
5.500000e-02  2.584045100276101e-02 
6.000000e-02  5.073740795530970e-03 
6.500000e-02  4.752816063735159e-03 
7.000000e-02  4.525118683128439e-03 
7.500000e-02  6.716868488095258e-03 
8.000000e-02  3.901613291542407e-02 
8.500000e-02  1.158812618899193e-01 
9.000000e-02  2.313533798835409e-01 
9.500000e-02  3.740990181837024e-01 
1.000000e-01  5.296901031268932e-01 
1.050000e-01  6.822771452963972e-01 
1.100000e-01  8.163371627536655e-01 
1.150000e-01  9.183991267812797e-01 
1.200000e-01  9.787300621406687e-01 
1.250000e-01  9.953534533034154e-01 
1.300000e-01  9.952679468481479e-01 
1.350000e-01  9.950580170279449e-01 
1.400000e-01  9.753426401153170e-01 
1.450000e-01  9.120164067663731e-01 
1.500000e-01  8.080213361589463e-01 
1.550000e-01  6.732106462265310e-01 
1.600000e-01  5.209966011990576e-01 
1.650000e-01  3.667110834804627e-01 
1.700000e-01  2.259021107440152e-01 
1.750000e-01  1.126126429895210e-01 
1.800000e-01  3.773485066892539e-02 
1.850000e-01  6.711922719340132e-03 
1.900000e-01  4.495974278880854e-03 
1.950000e-01  5.704329312942027e-03 
2.000000e-01  2.929286247100121e-02 
2.050000e-01  9.513770629990487e-02 
2.100000e-01  1.996938906987231e-01 
2.150000e-01  3.334176164199740e-01 
2.200000e-01  4.834047445750727e-01 
2.250000e-01  6.349538478606973e-01 
2.300000e-01  7.732130176806379e-01 
2.350000e-01  8.848415606905763e-01 
2.400000e-01  9.595915890426929e-01 
2.450000e-01  9.923629144931672e-01 
2.500000e-01  9.953162946088573e-01 
2.550000e-01  9.950798972281968e-01 
2.600000e-01  9.947626639980497e-01 
2.650000e-01  9.751000924758505e-01 
2.700000e-01  9.135505001522131e-01 
2.750000e-01  8.123078533357458e-01 
2.800000e-01  6.804311777505160e-01 
2.850000e-01  5.306290096260387e-01 
2.900000e-01  3.776578768045654e-01 
2.950000e-01  2.366642613612917e-01 
3.000000e-01  1.215064420872333e-01 
3.050000e-01  4.316447289144475e-02 
3.100000e-01  7.783770641744544e-03 
3.150000e-01  4.448300155451249e-03 
3.200000e-01  4.685349123142007e-03 
3.250000e-01  4.614797566031603e-03 
3.300000e-01  4.226108032762663e-03 
3.350000e-01  7.510247615042443e-03 
3.400000e-01  4.679908770059156e-02 
3.450000e-01  1.333816969514629e-01 
3.500000e-01  2.593141381611939e-01 
3.550000e-01  4.114126021897446e-01 
3.600000e-01  5.734314643434604e-01 
3.650000e-01  7.278690605105143e-01 
3.700000e-01  8.578536580196440e-01 
3.750000e-01  9.490379613543499e-01 
3.800000e-01  9.919670927678699e-01 
3.850000e-01  9.959002301366917e-01 
3.900000e-01  9.953292097455492e-01 
3.950000e-01  9.956186945801123e-01 
4.000000e-01  9.823734345537075e-01 
4.050000e-01  9.280330872419187e-01 
4.100000e-01  8.348586156459449e-01 
4.150000e-01  7.129454401880875e-01 
4.200000e-01  5.751653743930587e-01 
4.250000e-01  4.355256514725124e-01 
4.300000e-01  3.076707871965804e-01 
4.350000e-01  2.035070411122586e-01 
4.400000e-01  1.321019667162001e-01 
4.450000e-01  9.900552402224047e-02 
4.500000e-01  1.061013733337459e-01 
4.550000e-01  1.518616771792752e-01 
4.600000e-01  2.315625150464684e-01 
4.650000e-01  3.375588676420884e-01 
4.700000e-01  4.599200867127993e-01 
4.750000e-01  5.873530255439973e-01 
4.800000e-01  7.082633123101668e-01 
4.850000e-01  8.118249821674158e-01 
4.900000e-01  8.889427763558018e-01 
4.950000e-01  9.330082853360868e-01 
5.000000e-01  9.402995245037632e-01 
5.050000e-01  9.097956230112663e-01 
5.100000e-01  8.431162102873510e-01 
5.150000e-01  7.449849594678815e-01 
5.200000e-01  6.231612261863368e-01 
5.250000e-01  4.878417346970914e-01 
5.300000e-01  3.507570544564028e-01 
5.350000e-01  2.240790738277041e-01 
5.400000e-01  1.192493873229774e-01 
5.450000e-01  4.580178397668300e-02 
5.500000e-01  9.765380020262535e-03 
5.550000e-01  4.719367587111629e-03 
5.600000e-01  4.988751952680884e-03 
5.650000e-01  4.943391792555905e-03 
5.700000e-01  4.677369348924183e-03 
5.750000e-01  7.356903098062057e-03 
5.800000e-01  3.860657089018025e-02 
5.850000e-01  1.105753034181470e-01 
5.900000e-01  2.179890511364670e-01 
5.950000e-01  3.510401682740587e-01 
6.000000e-01  4.973916991291503e-01 
6.050000e-01  6.435253650424980e-01 
6.100000e-01  7.761217652753023e-01 
6.150000e-01  8.834139187147892e-01 
6.200000e-01  9.564450710910025e-01 
6.250000e-01  9.906896627462183e-01 
6.300000e-01  9.950669153756290e-01 
6.350000e-01  9.946586510152835e-01 
6.400000e-01  9.945618014222118e-01 
6.450000e-01  9.943712547543846e-01 
6.500000e-01  9.942669576267440e-01 
6.550000e-01  9.927266707453288e-01 
6.600000e-01  9.767919558646003e-01 
6.650000e-01  9.346255923139114e-01 
6.700000e-01  8.670576208542694e-01 
6.750000e-01  7.786286787129626e-01 
6.800000e-01  6.753660304386073e-01 
6.850000e-01  5.640267448182337e-01 
6.900000e-01  4.514707241758828e-01 
6.950000e-01  3.440858187746269e-01 
7.000000e-01  2.473036860853840e-01 
7.050000e-01  1.652496538563969e-01 
7.100000e-01  1.005497780709707e-01 
7.150000e-01  5.427858256255833e-02 
7.200000e-01  2.592909574428423e-02 
7.250000e-01  1.293011750169411e-02 
7.300000e-01  9.405560187666667e-03 
7.350000e-01  8.812997752180019e-03 
7.400000e-01  8.482051863941931e-03 
7.450000e-01  8.021535224191995e-03 
7.500000e-01  7.926857000612433e-03 
7.550000e-01  1.299711239245001e-02 
7.600000e-01  3.537195246462437e-02 
7.650000e-01  8.263027085997074e-02 
7.700000e-01  1.561977558048933e-01 
7.750000e-01  2.540096599478613e-01 
7.800000e-01  3.711002517885170e-01 
7.850000e-01  5.000123169146914e-01 
7.900000e-01  6.314417856248614e-01 
7.950000e-01  7.551088830452384e-01 
8.000000e-01  8.607708607480807e-01 
8.050000e-01  9.392933766009802e-01 
8.100000e-01  9.839147716310011e-01 
8.150000e-01  9.949700995605941e-01 
8.200000e-01  9.949739316674101e-01 
8.250000e-01  9.951066268250244e-01 
8.300000e-01  9.951721062395380e-01 
8.350000e-01  9.951350438949588e-01 
8.400000e-01  9.953000321846984e-01 
8.450000e-01  9.932219674785984e-01 
8.500000e-01  9.651253033275108e-01 
8.550000e-01  8.975739433723177e-01 
8.600000e-01  7.956046630360120e-01 
8.650000e-01  6.685957662166148e-01 
8.700000e-01  5.281163444481293e-01 
8.750000e-01  3.866349731869566e-01 
8.800000e-01  2.562300621151147e-01 
8.850000e-01  1.473546907941131e-01 
8.900000e-01  6.775895514437734e-02 
8.950000e-01  2.153661648797162e-02 
9.000000e-01  6.664515231437143e-03 
9.050000e-01  6.029601716323205e-03 
9.100000e-01  6.389660118131670e-03 
9.150000e-01  1.047359762241910e-02 
9.200000e-01  3.068004748955587e-02 
9.250000e-01  7.250967894647875e-02 
9.300000e-01  1.339863157288428e-01 
9.350000e-01  2.109165066485598e-01 
9.400000e-01  2.981829118118809e-01 
9.450000e-01  3.903434143233640e-01 
9.500000e-01  4.821460406821370e-01 
9.550000e-01  5.689856147842862e-01 
9.600000e-01  6.472607306863691e-01 
9.650000e-01  7.145887354083180e-01 
9.700000e-01  7.698541084793636e-01 
9.750000e-01  8.130914083837818e-01 
9.800000e-01  8.452303687657897e-01 
9.850000e-01  8.677509005690238e-01 
9.900000e-01  8.823053910414951e-01 
9.950000e-01  8.903643994414094e-01 
1.000000e+00  8.929321958132383e-01 
