TITLE ="t=77.103639" 
VARIABLES = "x"                 "phi" 
ZONE I=201, ZONETYPE=Ordered, DATAPACKING=POINT
0.000000e+00  1.016563971839671e+00 
5.000000e-03  9.243673203358074e-01 
1.000000e-02  8.056620880281313e-01 
1.500000e-02  6.583382101941689e-01 
2.000000e-02  4.970924490656154e-01 
2.500000e-02  3.382164698126515e-01 
3.000000e-02  1.977599162748359e-01 
3.500000e-02  8.973830639841616e-02 
4.000000e-02  2.441317938164209e-02 
4.500000e-02  4.739586398144166e-03 
5.000000e-02  4.700628614509677e-03 
5.500000e-02  4.617942504372524e-03 
6.000000e-02  5.521147338430377e-03 
6.500000e-02  3.061855179852948e-02 
7.000000e-02  9.995148856527890e-02 
7.500000e-02  2.090753142670241e-01 
8.000000e-02  3.474784029490527e-01 
8.500000e-02  5.013030391123877e-01 
9.000000e-02  6.549878913958317e-01 
9.500000e-02  7.929887062873399e-01 
1.000000e-01  9.014987371045233e-01 
1.050000e-01  9.700951682158119e-01 
1.100000e-01  9.945368079389663e-01 
1.150000e-01  9.953409005555902e-01 
1.200000e-01  9.952272124265601e-01 
1.250000e-01  9.952469111708824e-01 
1.300000e-01  9.952308235478842e-01 
1.350000e-01  9.953134240263413e-01 
1.400000e-01  9.786823770145382e-01 
1.450000e-01  9.187888022659864e-01 
1.500000e-01  8.174853117039251e-01 
1.550000e-01  6.843039030599248e-01 
1.600000e-01  5.325080337324921e-01 
1.650000e-01  3.774293599942807e-01 
1.700000e-01  2.347609003633729e-01 
1.750000e-01  1.188251117609934e-01 
1.800000e-01  4.091847077157532e-02 
1.850000e-01  7.141801333425759e-03 
1.900000e-01  4.528899818767049e-03 
1.950000e-01  4.651150121452725e-03 
2.000000e-01  1.972766086183644e-02 
2.050000e-01  7.775404747863393e-02 
2.100000e-01  1.774830578678740e-01 
2.150000e-01  3.095834349053095e-01 
2.200000e-01  4.609134380329015e-01 
2.250000e-01  6.161929068024943e-01 
2.300000e-01  7.597068930237808e-01 
2.350000e-01  8.770393106863893e-01 
2.400000e-01  9.567318044212205e-01 
2.450000e-01  9.923742941626637e-01 
2.500000e-01  9.955359434346717e-01 
2.550000e-01  9.951579771483486e-01 
2.600000e-01  9.954800520772455e-01 
2.650000e-01  9.813536195466638e-01 
2.700000e-01  9.245933239148338e-01 
2.750000e-01  8.259370192209849e-01 
2.800000e-01  6.945762990570634e-01 
2.850000e-01  5.435692607012500e-01 
2.900000e-01  3.881602410499626e-01 
2.950000e-01  2.440782619118969e-01 
3.000000e-01  1.258022160865092e-01 
3.050000e-01  4.489939760600171e-02 
3.100000e-01  7.982285806882542e-03 
3.150000e-01  4.449842735448210e-03 
3.200000e-01  4.808541090174712e-03 
3.250000e-01  4.745239851851785e-03 
3.300000e-01  4.784104609503679e-03 
3.350000e-01  4.597194418269823e-03 
3.400000e-01  6.024269099900958e-03 
3.450000e-01  3.422441736300345e-02 
3.500000e-01  1.066503581093306e-01 
3.550000e-01  2.182326757204289e-01 
3.600000e-01  3.581843024834344e-01 
3.650000e-01  5.124840538722476e-01 
3.700000e-01  6.655240254176554e-01 
3.750000e-01  8.018349735040849e-01 
3.800000e-01  9.078019659518289e-01 
3.850000e-01  9.733123994798940e-01 
3.900000e-01  9.948756619480325e-01 
3.950000e-01  9.952959298782778e-01 
4.000000e-01  9.952338789654224e-01 
4.050000e-01  9.952436728018855e-01 
4.100000e-01  9.952421663606745e-01 
4.150000e-01  9.952424230201906e-01 
4.200000e-01  9.952424029922966e-01 
4.250000e-01  9.952424343633537e-01 
4.300000e-01  9.952424052875873e-01 
4.350000e-01  9.952427212603463e-01 
4.400000e-01  9.952408341025987e-01 
4.450000e-01  9.952530320188285e-01 
4.500000e-01  9.951742393307367e-01 
4.550000e-01  9.956471042864343e-01 
4.600000e-01  9.882721447061608e-01 
4.650000e-01  9.419296646705488e-01 
4.700000e-01  8.523609660856637e-01 
4.750000e-01  7.275132233165769e-01 
4.800000e-01  5.797058130140745e-01 
4.850000e-01  4.238290545624846e-01 
4.900000e-01  2.756626333502103e-01 
4.950000e-01  1.501365403405518e-01 
5.000000e-01  5.964735401464653e-02 
5.050000e-01  1.227449611119694e-02 
5.100000e-01  4.352627999072337e-03 
5.150000e-01  4.825828730386362e-03 
5.200000e-01  4.746938238956188e-03 
5.250000e-01  4.759112503564191e-03 
5.300000e-01  4.757190302641609e-03 
5.350000e-01  4.757473320245433e-03 
5.400000e-01  4.757409152234972e-03 
5.450000e-01  4.757417309797086e-03 
5.500000e-01  4.757298313200166e-03 
5.550000e-01  4.757940981881618e-03 
5.600000e-01  4.753717834270613e-03 
5.650000e-01  4.780741169504438e-03 
5.700000e-01  4.611552768106032e-03 
5.750000e-01  5.888790020837359e-03 
5.800000e-01  3.325798567412710e-02 
5.850000e-01  1.048453081675765e-01 
5.900000e-01  2.157537664293525e-01 
5.950000e-01  3.552761119112685e-01 
6.000000e-01  5.094389239215229e-01 
6.050000e-01  6.626493257103530e-01 
6.100000e-01  7.994192618431052e-01 
6.150000e-01  9.060824099885291e-01 
6.200000e-01  9.724412167507166e-01 
6.250000e-01  9.947892698434804e-01 
6.300000e-01  9.953077146352980e-01 
6.350000e-01  9.952321551508265e-01 
6.400000e-01  9.952444073307228e-01 
6.450000e-01  9.952409854237461e-01 
6.500000e-01  9.952517794163341e-01 
6.550000e-01  9.951844021597956e-01 
6.600000e-01  9.955925028569370e-01 
6.650000e-01  9.910845612980994e-01 
6.700000e-01  9.512688824039643e-01 
6.750000e-01  8.676522489910077e-01 
6.800000e-01  7.472849451717500e-01 
6.850000e-01  6.019746062426717e-01 
6.900000e-01  4.463357969063554e-01 
6.950000e-01  2.961224436661049e-01 
7.000000e-01  1.664909553975769e-01 
7.050000e-01  7.030381720233028e-02 
7.100000e-01  1.642695608034148e-02 
7.150000e-01  4.435289033376155e-03 
7.200000e-01  4.811338308176634e-03 
7.250000e-01  4.749423083867614e-03 
7.300000e-01  4.758949586726752e-03 
7.350000e-01  4.757253890922241e-03 
7.400000e-01  4.758228838406417e-03 
7.450000e-01  4.752925037824698e-03 
7.500000e-01  4.786276753775943e-03 
7.550000e-01  4.578232535923415e-03 
7.600000e-01  6.220317634256114e-03 
7.650000e-01  3.554824269321909e-02 
7.700000e-01  1.091019506167066e-01 
7.750000e-01  2.215871087012021e-01 
7.800000e-01  3.621102375020348e-01 
7.850000e-01  5.165866833741065e-01 
7.900000e-01  6.693892089301259e-01 
7.950000e-01  8.050748218148239e-01 
8.000000e-01  9.100986923282445e-01 
8.050000e-01  9.744639818399216e-01 
8.100000e-01  9.949831849661206e-01 
8.150000e-01  9.952807909119241e-01 
8.200000e-01  9.952360723273024e-01 
8.250000e-01  9.952432237514135e-01 
8.300000e-01  9.952411040166163e-01 
8.350000e-01  9.952476579416448e-01 
8.400000e-01  9.952063562262526e-01 
8.450000e-01  9.954614716854556e-01 
8.500000e-01  9.812064996378367e-01 
8.550000e-01  9.242718049374864e-01 
8.600000e-01  8.254677217624953e-01 
8.650000e-01  6.940049926594808e-01 
8.700000e-01  5.429531651581737e-01 
8.750000e-01  3.875614909354893e-01 
8.800000e-01  2.435570733489431e-01 
8.850000e-01  1.254102080228024e-01 
8.900000e-01  4.467328185892126e-02 
8.950000e-01  7.931312348451156e-03 
9.000000e-01  4.452757744307549e-03 
9.050000e-01  4.807385420902511e-03 
9.100000e-01  4.749879964658641e-03 
9.150000e-01  4.755072172732980e-03 
9.200000e-01  4.778567237405506e-03 
9.250000e-01  4.623028837032494e-03 
9.300000e-01  5.782224564007654e-03 
9.350000e-01  3.246534416197037e-02 
9.400000e-01  1.033554584204986e-01 
9.450000e-01  2.137022449723577e-01 
9.500000e-01  3.528651406716262e-01 
9.550000e-01  5.069107252369851e-01 
9.600000e-01  6.602589911893135e-01 
9.650000e-01  7.974066833556047e-01 
9.700000e-01  9.046452460414552e-01 
9.750000e-01  9.717072821800777e-01 
9.800000e-01  9.947129671025915e-01 
9.850000e-01  9.953176661053394e-01 
9.900000e-01  9.952304601734344e-01 
9.950000e-01  9.952442929679780e-01 
1.000000e+00  9.952418091063737e-01 
