TITLE ="t=0.011070" 
VARIABLES = "x"                 "phi" 
ZONE I=201, ZONETYPE=Ordered, DATAPACKING=POINT
0.000000e+00  1.012525346271692e+00 
5.000000e-03  8.742171080234936e-01 
1.000000e-02  7.427631741469259e-01 
1.500000e-02  6.244315894395962e-01 
2.000000e-02  5.167457225906814e-01 
2.500000e-02  4.267104789763503e-01 
3.000000e-02  3.612702459183523e-01 
3.500000e-02  3.231991891175194e-01 
4.000000e-02  3.113852445913768e-01 
4.500000e-02  3.218907812561386e-01 
5.000000e-02  3.490156902740456e-01 
5.500000e-02  3.863373844180197e-01 
6.000000e-02  4.276069631762089e-01 
6.500000e-02  4.674194143615726e-01 
7.000000e-02  5.016575490817127e-01 
7.500000e-02  5.277200343181904e-01 
8.000000e-02  5.445362458608523e-01 
8.500000e-02  5.523852306477454e-01 
9.000000e-02  5.525666405344619e-01 
9.500000e-02  5.469966419347196e-01 
1.000000e-01  5.378065031737109e-01 
1.050000e-01  5.270057253112699e-01 
1.100000e-01  5.162457940692387e-01 
1.150000e-01  5.066955078918771e-01 
1.200000e-01  4.990192653339457e-01 
1.250000e-01  4.934363153952410e-01 
1.300000e-01  4.898314769003280e-01 
1.350000e-01  4.878861476127029e-01 
1.400000e-01  4.872021437490010e-01 
1.450000e-01  4.873986800455750e-01 
1.500000e-01  4.881724867886167e-01 
1.550000e-01  4.893204301030464e-01 
1.600000e-01  4.907313321627708e-01 
1.650000e-01  4.923580409611034e-01 
1.700000e-01  4.941820121354630e-01 
1.750000e-01  4.961811925896505e-01 
1.800000e-01  4.983086919069594e-01 
1.850000e-01  5.004856128352239e-01 
1.900000e-01  5.026074523664550e-01 
1.950000e-01  5.045604220795618e-01 
2.000000e-01  5.062422940640294e-01 
2.050000e-01  5.075820488730060e-01 
2.100000e-01  5.085534976438885e-01 
2.150000e-01  5.091797978135135e-01 
2.200000e-01  5.095279235793365e-01 
2.250000e-01  5.096942430464813e-01 
2.300000e-01  5.097840328799694e-01 
2.350000e-01  5.098887945859196e-01 
2.400000e-01  5.100655301267721e-01 
2.450000e-01  5.103217206372250e-01 
2.500000e-01  5.106087600936198e-01 
2.550000e-01  5.108252178030265e-01 
2.600000e-01  5.108297599840200e-01 
2.650000e-01  5.104620716619886e-01 
2.700000e-01  5.095688827478183e-01 
2.750000e-01  5.080313738841391e-01 
2.800000e-01  5.057899238834881e-01 
2.850000e-01  5.028624058054859e-01 
2.900000e-01  4.993530199308995e-01 
2.950000e-01  4.954498766539717e-01 
3.000000e-01  4.914110547774549e-01 
3.050000e-01  4.875404583228842e-01 
3.100000e-01  4.841562551823547e-01 
3.150000e-01  4.815557929543089e-01 
3.200000e-01  4.799814830297120e-01 
3.250000e-01  4.795921233176305e-01 
3.300000e-01  4.804434781164942e-01 
3.350000e-01  4.824807285226174e-01 
3.400000e-01  4.855438138264766e-01 
3.450000e-01  4.893849353857736e-01 
3.500000e-01  4.936958517425492e-01 
3.550000e-01  4.981413057188056e-01 
3.600000e-01  5.023941832353580e-01 
3.650000e-01  5.061679146181080e-01 
3.700000e-01  5.092421938371835e-01 
3.750000e-01  5.114792078198606e-01 
3.800000e-01  5.128290473195882e-01 
3.850000e-01  5.133245664155064e-01 
3.900000e-01  5.130674091627273e-01 
3.950000e-01  5.122080026280887e-01 
4.000000e-01  5.109228740880658e-01 
4.050000e-01  5.093926347547674e-01 
4.100000e-01  5.077834338721868e-01 
4.150000e-01  5.062337621663521e-01 
4.200000e-01  5.048473648340555e-01 
4.250000e-01  5.036919223927512e-01 
4.300000e-01  5.028022643893658e-01 
4.350000e-01  5.021863358086264e-01 
4.400000e-01  5.018320043797088e-01 
4.450000e-01  5.017130620129623e-01 
4.500000e-01  5.017933441504999e-01 
4.550000e-01  5.020286230790243e-01 
4.600000e-01  5.023666593674497e-01 
4.650000e-01  5.027463647601780e-01 
4.700000e-01  5.030973255751739e-01 
4.750000e-01  5.033409038195285e-01 
4.800000e-01  5.033937879513569e-01 
4.850000e-01  5.031742835779283e-01 
4.900000e-01  5.026109398380766e-01 
4.950000e-01  5.016524451087740e-01 
5.000000e-01  5.002772355438830e-01 
5.050000e-01  4.985010495317509e-01 
5.100000e-01  4.963807863802488e-01 
5.150000e-01  4.940134818886582e-01 
5.200000e-01  4.915299285447311e-01 
5.250000e-01  4.890833253246024e-01 
5.300000e-01  4.868341934786384e-01 
5.350000e-01  4.849334886959371e-01 
5.400000e-01  4.835062478594056e-01 
5.450000e-01  4.826381467063755e-01 
5.500000e-01  4.823669902037344e-01 
5.550000e-01  4.826804539989657e-01 
5.600000e-01  4.835204482724514e-01 
5.650000e-01  4.847934359909346e-01 
5.700000e-01  4.863850785169948e-01 
5.750000e-01  4.881768671358476e-01 
5.800000e-01  4.900620567346664e-01 
5.850000e-01  4.919583153410517e-01 
5.900000e-01  4.938150356687491e-01 
5.950000e-01  4.956141437938614e-01 
6.000000e-01  4.973643446086823e-01 
6.050000e-01  4.990898821424957e-01 
6.100000e-01  5.008158726632626e-01 
6.150000e-01  5.025529190843920e-01 
6.200000e-01  5.042839180909698e-01 
6.250000e-01  5.059556819570570e-01 
6.300000e-01  5.074772537135841e-01 
6.350000e-01  5.087257132766498e-01 
6.400000e-01  5.095590279728259e-01 
6.450000e-01  5.098342972899642e-01 
6.500000e-01  5.094287772830188e-01 
6.550000e-01  5.082605056746087e-01 
6.600000e-01  5.063052809705295e-01 
6.650000e-01  5.036071943533801e-01 
6.700000e-01  5.002808047727741e-01 
6.750000e-01  4.965042457888981e-01 
6.800000e-01  4.925038684863114e-01 
6.850000e-01  4.885322527939630e-01 
6.900000e-01  4.848423729080769e-01 
6.950000e-01  4.816612427985814e-01 
7.000000e-01  4.791664249850422e-01 
7.050000e-01  4.774683659272762e-01 
7.100000e-01  4.766007020891893e-01 
7.150000e-01  4.765195959891145e-01 
7.200000e-01  4.771119780721055e-01 
7.250000e-01  4.782114591046027e-01 
7.300000e-01  4.796197866598978e-01 
7.350000e-01  4.811311509518506e-01 
7.400000e-01  4.825564465904785e-01 
7.450000e-01  4.837447584428647e-01 
7.500000e-01  4.845998051634873e-01 
7.550000e-01  4.850897542035001e-01 
7.600000e-01  4.852496133567588e-01 
7.650000e-01  4.851762044909742e-01 
7.700000e-01  4.850164498291954e-01 
7.750000e-01  4.849502903200063e-01 
7.800000e-01  4.851699778659645e-01 
7.850000e-01  4.858577319433846e-01 
7.900000e-01  4.871638369725604e-01 
7.950000e-01  4.891871976674156e-01 
8.000000e-01  4.919601824489294e-01 
8.050000e-01  4.954392809363652e-01 
8.100000e-01  4.995026862098108e-01 
8.150000e-01  5.039553917665971e-01 
8.200000e-01  5.085417811768576e-01 
8.250000e-01  5.129650156717349e-01 
8.300000e-01  5.169118405968495e-01 
8.350000e-01  5.200808012744766e-01 
8.400000e-01  5.222113561487665e-01 
8.450000e-01  5.231110724304463e-01 
8.500000e-01  5.226780478035875e-01 
8.550000e-01  5.209159616216298e-01 
8.600000e-01  5.179397312223645e-01 
8.650000e-01  5.139706057030973e-01 
8.700000e-01  5.093205984086805e-01 
8.750000e-01  5.043673256257277e-01 
8.800000e-01  4.995214380430972e-01 
8.850000e-01  4.951897520926949e-01 
8.900000e-01  4.917377790351383e-01 
8.950000e-01  4.894555227751884e-01 
9.000000e-01  4.885301427310136e-01 
9.050000e-01  4.890283861116191e-01 
9.100000e-01  4.908906686741420e-01 
9.150000e-01  4.939374478088346e-01 
9.200000e-01  4.978872316072300e-01 
9.250000e-01  5.023843505606657e-01 
9.300000e-01  5.070336190575387e-01 
9.350000e-01  5.114383380297476e-01 
9.400000e-01  5.152378046910385e-01 
9.450000e-01  5.181406206011709e-01 
9.500000e-01  5.199505974500102e-01 
9.550000e-01  5.205828800589237e-01 
9.600000e-01  5.200689358230058e-01 
9.650000e-01  5.185501816296186e-01 
9.700000e-01  5.162611170248496e-01 
9.750000e-01  5.135038041890895e-01 
9.800000e-01  5.106163008246389e-01 
9.850000e-01  5.079381551810500e-01 
9.900000e-01  5.057762814325715e-01 
9.950000e-01  5.043744411568750e-01 
1.000000e+00  5.038891794446477e-01 
