TITLE ="t=1.331849" 
VARIABLES = "x"                 "phi" 
ZONE I=201, ZONETYPE=Ordered, DATAPACKING=POINT
0.000000e+00  9.999816351970341e-01 
5.000000e-03  9.915078800447278e-01 
1.000000e-02  9.923880898751133e-01 
1.500000e-02  9.591010402738289e-01 
2.000000e-02  8.827738080207896e-01 
2.500000e-02  7.687306010716688e-01 
3.000000e-02  6.277680747914043e-01 
3.500000e-02  4.738511846683112e-01 
4.000000e-02  3.224298480639552e-01 
4.500000e-02  1.887080885230666e-01 
5.000000e-02  8.594258376004235e-02 
5.500000e-02  2.380311211211172e-02 
6.000000e-02  4.900199697835436e-03 
6.500000e-02  4.796494369913634e-03 
7.000000e-02  4.506146265353942e-03 
7.500000e-02  7.253819538044031e-03 
8.000000e-02  4.141642557711819e-02 
8.500000e-02  1.196783975917459e-01 
9.000000e-02  2.358839496061623e-01 
9.500000e-02  3.787091356237296e-01 
1.000000e-01  5.338162875758108e-01 
1.050000e-01  6.855106995344911e-01 
1.100000e-01  8.184729717671995e-01 
1.150000e-01  9.194651427638318e-01 
1.200000e-01  9.789953567233117e-01 
1.250000e-01  9.953278340719951e-01 
1.300000e-01  9.952495328230666e-01 
1.350000e-01  9.951001384241093e-01 
1.400000e-01  9.757789716656345e-01 
1.450000e-01  9.127558913296792e-01 
1.500000e-01  8.088429766992994e-01 
1.550000e-01  6.738995752591829e-01 
1.600000e-01  5.213871775087113e-01 
1.650000e-01  3.667166629892100e-01 
1.700000e-01  2.255364652463581e-01 
1.750000e-01  1.120041356583223e-01 
1.800000e-01  3.713608058642092e-02 
1.850000e-01  6.481520301860114e-03 
1.900000e-01  4.512784077374613e-03 
1.950000e-01  5.049439304486798e-03 
2.000000e-01  2.531976246776994e-02 
2.050000e-01  8.943001730592839e-02 
2.100000e-01  1.942421089953702e-01 
2.150000e-01  3.297846272123952e-01 
2.200000e-01  4.825285984199148e-01 
2.250000e-01  6.370374081386874e-01 
2.300000e-01  7.776802305657611e-01 
2.350000e-01  8.903591010452251e-01 
2.400000e-01  9.641577606430393e-01 
2.450000e-01  9.937338403583710e-01 
2.500000e-01  9.954269722351795e-01 
2.550000e-01  9.952059665312436e-01 
2.600000e-01  9.952896207125220e-01 
2.650000e-01  9.782281039108757e-01 
2.700000e-01  9.178247433375526e-01 
2.750000e-01  8.160945981795530e-01 
2.800000e-01  6.826235751908818e-01 
2.850000e-01  5.307076305016496e-01 
2.900000e-01  3.756915956239498e-01 
2.950000e-01  2.332615144858604e-01 
3.000000e-01  1.177132459582098e-01 
3.050000e-01  4.029791670740620e-02 
3.100000e-01  7.029407882247225e-03 
3.150000e-01  4.512580359049969e-03 
3.200000e-01  4.792228343624274e-03 
3.250000e-01  4.801560505233865e-03 
3.300000e-01  4.473205266372853e-03 
3.350000e-01  7.679399808497537e-03 
3.400000e-01  4.343635060541508e-02 
3.450000e-01  1.231500558216677e-01 
3.500000e-01  2.404060348946236e-01 
3.550000e-01  3.837635591641104e-01 
3.600000e-01  5.388365903842149e-01 
3.650000e-01  6.899505908897081e-01 
3.700000e-01  8.218757020898221e-01 
3.750000e-01  9.215349563735475e-01 
3.800000e-01  9.796988714177366e-01 
3.850000e-01  9.952554732003689e-01 
3.900000e-01  9.950654140389857e-01 
3.950000e-01  9.946744555569077e-01 
4.000000e-01  9.781989123324208e-01 
4.050000e-01  9.250863794039317e-01 
4.100000e-01  8.372855385993736e-01 
4.150000e-01  7.230938856970935e-01 
4.200000e-01  5.939036780321816e-01 
4.250000e-01  4.627914057574489e-01 
4.300000e-01  3.430832093243438e-01 
4.350000e-01  2.469259293333714e-01 
4.400000e-01  1.840076032266934e-01 
4.450000e-01  1.605782755946609e-01 
4.500000e-01  1.788812272131656e-01 
4.550000e-01  2.369829318086166e-01 
4.600000e-01  3.289390912072160e-01 
4.650000e-01  4.453346082275529e-01 
4.700000e-01  5.742185459559561e-01 
4.750000e-01  7.023426914614043e-01 
4.800000e-01  8.165569836871672e-01 
4.850000e-01  9.052032018615448e-01 
4.900000e-01  9.593574594285867e-01 
4.950000e-01  9.736938796976982e-01 
5.000000e-01  9.455820155484727e-01 
5.050000e-01  8.744625929317886e-01 
5.100000e-01  7.655359794197995e-01 
5.150000e-01  6.290485688415495e-01 
5.200000e-01  4.785184120176541e-01 
5.250000e-01  3.290753667286687e-01 
5.300000e-01  1.957578642126804e-01 
5.350000e-01  9.183202835036611e-02 
5.400000e-01  2.718069298890671e-02 
5.450000e-01  5.310489824896450e-03 
5.500000e-01  4.743390933457826e-03 
5.550000e-01  4.812463721664717e-03 
5.600000e-01  4.787353884971819e-03 
5.650000e-01  4.795780180274089e-03 
5.700000e-01  4.679467342608398e-03 
5.750000e-01  5.419509371359919e-03 
5.800000e-01  2.941107602884764e-02 
5.850000e-01  9.748803665990907e-02 
5.900000e-01  2.055409270840211e-01 
5.950000e-01  3.432103162853928e-01 
6.000000e-01  4.967327179748525e-01 
6.050000e-01  6.505877939803834e-01 
6.100000e-01  7.892179646792749e-01 
6.150000e-01  8.987502849213573e-01 
6.200000e-01  9.686421042622174e-01 
6.250000e-01  9.943586612242228e-01 
6.300000e-01  9.953606702847813e-01 
6.350000e-01  9.952233912404955e-01 
6.400000e-01  9.952455641173235e-01 
6.450000e-01  9.952407416766001e-01 
6.500000e-01  9.952510276711010e-01 
6.550000e-01  9.951886835386627e-01 
6.600000e-01  9.955678397811977e-01 
6.650000e-01  9.916616647731590e-01 
6.700000e-01  9.535767153891570e-01 
6.750000e-01  8.715761427638142e-01 
6.800000e-01  7.524518702087848e-01 
6.850000e-01  6.078685848801297e-01 
6.900000e-01  4.523603345016594e-01 
6.950000e-01  3.016666746752826e-01 
7.000000e-01  1.709969862321153e-01 
7.050000e-01  7.333099304707041e-02 
7.100000e-01  1.773041889118247e-02 
7.150000e-01  4.487747959103861e-03 
7.200000e-01  4.802351976541726e-03 
7.250000e-01  4.751003951503095e-03 
7.300000e-01  4.758917203157099e-03 
7.350000e-01  4.757484250164140e-03 
7.400000e-01  4.758368802130974e-03 
7.450000e-01  4.753332281025469e-03 
7.500000e-01  4.784870581582637e-03 
7.550000e-01  4.587625737968145e-03 
7.600000e-01  6.124312719951347e-03 
7.650000e-01  3.490894062463062e-02 
7.700000e-01  1.079199354308652e-01 
7.750000e-01  2.199704653158980e-01 
7.800000e-01  3.602184042510068e-01 
7.850000e-01  5.146098101387998e-01 
7.900000e-01  6.675268933410800e-01 
7.950000e-01  8.035141360757866e-01 
8.000000e-01  9.089930303327826e-01 
8.050000e-01  9.739109375955921e-01 
8.100000e-01  9.949323798987907e-01 
8.150000e-01  9.952879232528298e-01 
8.200000e-01  9.952349079475943e-01 
8.250000e-01  9.952433375905280e-01 
8.300000e-01  9.952411886654271e-01 
8.350000e-01  9.952466373666351e-01 
8.400000e-01  9.952126931166865e-01 
8.450000e-01  9.954235810376916e-01 
8.500000e-01  9.804971220822929e-01 
8.550000e-01  9.227046061068384e-01 
8.600000e-01  8.231731292934303e-01 
8.650000e-01  6.912075922623595e-01 
8.700000e-01  5.399342255693262e-01 
8.750000e-01  3.846267364852405e-01 
8.800000e-01  2.410029967264649e-01 
8.850000e-01  1.234911358645799e-01 
8.900000e-01  4.357018488120979e-02 
8.950000e-01  7.688672943880316e-03 
9.000000e-01  4.466615335155508e-03 
9.050000e-01  4.805015108578837e-03 
9.100000e-01  4.750347558309962e-03 
9.150000e-01  4.754855698679190e-03 
9.200000e-01  4.780091553892565e-03 
9.250000e-01  4.614268824603088e-03 
9.300000e-01  5.863853704531339e-03 
9.350000e-01  3.307403218293679e-02 
9.400000e-01  1.044990637484309e-01 
9.450000e-01  2.152758905010259e-01 
9.500000e-01  3.547131236461086e-01 
9.550000e-01  5.088470747757183e-01 
9.600000e-01  6.620883026363199e-01 
9.650000e-01  7.989456298984944e-01 
9.700000e-01  9.057432596076509e-01 
9.750000e-01  9.722676203259190e-01 
9.800000e-01  9.947712554011112e-01 
9.850000e-01  9.953098667592770e-01 
9.900000e-01  9.952314948739208e-01 
9.950000e-01  9.952438887853597e-01 
1.000000e+00  9.952416539526606e-01 
