TITLE ="t=0.000034" 
VARIABLES = "x"                 "phi" 
ZONE I=201, ZONETYPE=Ordered, DATAPACKING=POINT
0.000000e+00  6.951643931090458e-01 
5.000000e-03  5.010091231767922e-01 
1.000000e-02  4.526585630045061e-01 
1.500000e-02  4.930544525971269e-01 
2.000000e-02  5.177409375599198e-01 
2.500000e-02  5.168058612832409e-01 
3.000000e-02  5.079075737812150e-01 
3.500000e-02  5.027670198693398e-01 
4.000000e-02  5.039481833786901e-01 
4.500000e-02  5.113672214761263e-01 
5.000000e-02  5.183240933248624e-01 
5.500000e-02  5.123471104195694e-01 
6.000000e-02  4.901127905991844e-01 
6.500000e-02  4.664588539350875e-01 
7.000000e-02  4.614197029158216e-01 
7.500000e-02  4.797432093520739e-01 
8.000000e-02  5.076743624125541e-01 
8.500000e-02  5.285210679137777e-01 
9.000000e-02  5.361817215760255e-01 
9.500000e-02  5.336717010657869e-01 
1.000000e-01  5.250057265000744e-01 
1.050000e-01  5.128194543772362e-01 
1.100000e-01  5.006324433848610e-01 
1.150000e-01  4.922625456718038e-01 
1.200000e-01  4.886966222693102e-01 
1.250000e-01  4.883000590204228e-01 
1.300000e-01  4.906033971486333e-01 
1.350000e-01  4.972490564711987e-01 
1.400000e-01  5.073148899172075e-01 
1.450000e-01  5.139287097706134e-01 
1.500000e-01  5.097038148952375e-01 
1.550000e-01  4.958313093665396e-01 
1.600000e-01  4.818995570153979e-01 
1.650000e-01  4.758266482137578e-01 
1.700000e-01  4.778840871316800e-01 
1.750000e-01  4.851182601241886e-01 
1.800000e-01  4.958880326268525e-01 
1.850000e-01  5.077581783997935e-01 
1.900000e-01  5.163128663304934e-01 
1.950000e-01  5.192222584478455e-01 
2.000000e-01  5.177510621608665e-01 
2.050000e-01  5.128950779484117e-01 
2.100000e-01  5.047925260837877e-01 
2.150000e-01  4.970583269663373e-01 
2.200000e-01  4.958445498663177e-01 
2.250000e-01  5.020979146232161e-01 
2.300000e-01  5.094125685204119e-01 
2.350000e-01  5.118508524444485e-01 
2.400000e-01  5.098821066366522e-01 
2.450000e-01  5.069476197997060e-01 
2.500000e-01  5.048182733670052e-01 
2.550000e-01  5.049043219545979e-01 
2.600000e-01  5.093881493826976e-01 
2.650000e-01  5.164556667392037e-01 
2.700000e-01  5.176362321966426e-01 
2.750000e-01  5.063990205012187e-01 
2.800000e-01  4.895833724691823e-01 
2.850000e-01  4.838218769724633e-01 
2.900000e-01  4.967068292167391e-01 
2.950000e-01  5.152902403546070e-01 
3.000000e-01  5.187708185941261e-01 
3.050000e-01  5.018587521710395e-01 
3.100000e-01  4.805692019540587e-01 
3.150000e-01  4.735629224950628e-01 
3.200000e-01  4.817674326293412e-01 
3.250000e-01  4.894125268971331e-01 
3.300000e-01  4.833187508327059e-01 
3.350000e-01  4.678755504360064e-01 
3.400000e-01  4.605879364251345e-01 
3.450000e-01  4.741924382522686e-01 
3.500000e-01  5.035130648972965e-01 
3.550000e-01  5.293166585492063e-01 
3.600000e-01  5.348458053294795e-01 
3.650000e-01  5.197307166414489e-01 
3.700000e-01  4.993420945183770e-01 
3.750000e-01  4.910482822841930e-01 
3.800000e-01  4.995233884477223e-01 
3.850000e-01  5.133749353802567e-01 
3.900000e-01  5.167427062753933e-01 
3.950000e-01  5.061573012982044e-01 
4.000000e-01  4.947283557885113e-01 
4.050000e-01  4.965871492903099e-01 
4.100000e-01  5.092159116885866e-01 
4.150000e-01  5.172299077633422e-01 
4.200000e-01  5.131011331644374e-01 
4.250000e-01  5.054246075638530e-01 
4.300000e-01  5.037351483261054e-01 
4.350000e-01  5.046169794846580e-01 
4.400000e-01  5.001595658873463e-01 
4.450000e-01  4.931658711897655e-01 
4.500000e-01  4.939073528375941e-01 
4.550000e-01  5.041014049983766e-01 
4.600000e-01  5.130934086055779e-01 
4.650000e-01  5.110980197980363e-01 
4.700000e-01  5.006544143029300e-01 
4.750000e-01  4.930034981607520e-01 
4.800000e-01  4.954404496338418e-01 
4.850000e-01  5.033800290308562e-01 
4.900000e-01  5.054544067521327e-01 
4.950000e-01  4.976912246848889e-01 
5.000000e-01  4.903948581394342e-01 
5.050000e-01  4.957918088733004e-01 
5.100000e-01  5.098148023550317e-01 
5.150000e-01  5.143340451403473e-01 
5.200000e-01  5.001849539579454e-01 
5.250000e-01  4.799041550224831e-01 
5.300000e-01  4.718469605530048e-01 
5.350000e-01  4.781099490570759e-01 
5.400000e-01  4.859939950295717e-01 
5.450000e-01  4.872671459784159e-01 
5.500000e-01  4.863785241998773e-01 
5.550000e-01  4.893598081827064e-01 
5.600000e-01  4.930738598730133e-01 
5.650000e-01  4.901817345578412e-01 
5.700000e-01  4.811508106845700e-01 
5.750000e-01  4.760499346595903e-01 
5.800000e-01  4.831949416977270e-01 
5.850000e-01  4.984584375212869e-01 
5.900000e-01  5.090495828439998e-01 
5.950000e-01  5.082285114000851e-01 
6.000000e-01  5.024188946313616e-01 
6.050000e-01  5.006830924782036e-01 
6.100000e-01  5.012257628442256e-01 
6.150000e-01  4.954986961822954e-01 
6.200000e-01  4.847062451938154e-01 
6.250000e-01  4.826386256672319e-01 
6.300000e-01  4.973336049635523e-01 
6.350000e-01  5.169824720632831e-01 
6.400000e-01  5.222246655925881e-01 
6.450000e-01  5.100153067796240e-01 
6.500000e-01  4.973526235808370e-01 
6.550000e-01  5.000701869099621e-01 
6.600000e-01  5.140146486823706e-01 
6.650000e-01  5.208631154857604e-01 
6.700000e-01  5.097128373156669e-01 
6.750000e-01  4.887621489028419e-01 
6.800000e-01  4.752041011818137e-01 
6.850000e-01  4.764580210314509e-01 
6.900000e-01  4.842350517451283e-01 
6.950000e-01  4.869456551206046e-01 
7.000000e-01  4.837650812819412e-01 
7.050000e-01  4.826031570548525e-01 
7.100000e-01  4.863478520519167e-01 
7.150000e-01  4.875295955870530e-01 
7.200000e-01  4.791195869367332e-01 
7.250000e-01  4.663884381599914e-01 
7.300000e-01  4.631663864865287e-01 
7.350000e-01  4.760474023243602e-01 
7.400000e-01  4.954166872084487e-01 
7.450000e-01  5.047839716503040e-01 
7.500000e-01  4.984757335501940e-01 
7.550000e-01  4.868243509828348e-01 
7.600000e-01  4.822027868087553e-01 
7.650000e-01  4.841885744598848e-01 
7.700000e-01  4.838701684077733e-01 
7.750000e-01  4.796108108143557e-01 
7.800000e-01  4.793702526554461e-01 
7.850000e-01  4.865060063001346e-01 
7.900000e-01  4.932670448939602e-01 
7.950000e-01  4.934713780084101e-01 
8.000000e-01  4.929960664883744e-01 
8.050000e-01  4.994635198570250e-01 
8.100000e-01  5.078167124908087e-01 
8.150000e-01  5.069520857500766e-01 
8.200000e-01  4.981513359084632e-01 
8.250000e-01  4.953258020529746e-01 
8.300000e-01  5.053176341954861e-01 
8.350000e-01  5.181677649766337e-01 
8.400000e-01  5.215468458597925e-01 
8.450000e-01  5.170132401061098e-01 
8.500000e-01  5.155675488552752e-01 
8.550000e-01  5.219319435507940e-01 
8.600000e-01  5.296537768023878e-01 
8.650000e-01  5.295201612314731e-01 
8.700000e-01  5.180778511928961e-01 
8.750000e-01  4.995980041354118e-01 
8.800000e-01  4.835712531724837e-01 
8.850000e-01  4.786123997064762e-01 
8.900000e-01  4.851144104734140e-01 
8.950000e-01  4.949436336655968e-01 
9.000000e-01  5.006077938397437e-01 
9.050000e-01  5.021547532575212e-01 
9.100000e-01  5.024804908623397e-01 
9.150000e-01  5.003286500508056e-01 
9.200000e-01  4.939450698215435e-01 
9.250000e-01  4.890352639246636e-01 
9.300000e-01  4.949657197093274e-01 
9.350000e-01  5.116265211394656e-01 
9.400000e-01  5.267020356137020e-01 
9.450000e-01  5.295303070315617e-01 
9.500000e-01  5.229590667248600e-01 
9.550000e-01  5.170644942711489e-01 
9.600000e-01  5.151406085139250e-01 
9.650000e-01  5.126076594317915e-01 
9.700000e-01  5.083642813550182e-01 
9.750000e-01  5.086825571559842e-01 
9.800000e-01  5.161198194923178e-01 
9.850000e-01  5.212005824825874e-01 
9.900000e-01  5.128668704022414e-01 
9.950000e-01  4.952998366450451e-01 
1.000000e+00  4.860794527082163e-01 
