TITLE ="t=0.002984" 
VARIABLES = "x"                 "phi" 
ZONE I=201, ZONETYPE=Ordered, DATAPACKING=POINT
0.000000e+00  1.008013084035070e+00 
5.000000e-03  8.149871859474168e-01 
1.000000e-02  6.257399134264288e-01 
1.500000e-02  4.904431288909679e-01 
2.000000e-02  4.011818769863931e-01 
2.500000e-02  3.562449738002706e-01 
3.000000e-02  3.506002316132217e-01 
3.500000e-02  3.727801258408927e-01 
4.000000e-02  4.094138053101066e-01 
4.500000e-02  4.487645583506066e-01 
5.000000e-02  4.824257466356636e-01 
5.500000e-02  5.059241796495814e-01 
6.000000e-02  5.184560190656774e-01 
6.500000e-02  5.219345876608307e-01 
7.000000e-02  5.196799757020022e-01 
7.500000e-02  5.151407696894852e-01 
8.000000e-02  5.109610412510649e-01 
8.500000e-02  5.085419275956460e-01 
9.000000e-02  5.080760921367993e-01 
9.500000e-02  5.089104525191556e-01 
1.000000e-01  5.100405559206892e-01 
1.050000e-01  5.105562746740326e-01 
1.100000e-01  5.099219818356728e-01 
1.150000e-01  5.080554651583690e-01 
1.200000e-01  5.052407747902660e-01 
1.250000e-01  5.019520431248066e-01 
1.300000e-01  4.986719373705940e-01 
1.350000e-01  4.957663105491710e-01 
1.400000e-01  4.934401018606976e-01 
1.450000e-01  4.917640423473111e-01 
1.500000e-01  4.907387023794773e-01 
1.550000e-01  4.903568249367041e-01 
1.600000e-01  4.906349863219522e-01 
1.650000e-01  4.916047543819252e-01 
1.700000e-01  4.932731269427489e-01 
1.750000e-01  4.955748703732397e-01 
1.800000e-01  4.983416896707496e-01 
1.850000e-01  5.013054175494372e-01 
1.900000e-01  5.041385347769894e-01 
1.950000e-01  5.065209239571782e-01 
2.000000e-01  5.082119961718421e-01 
2.050000e-01  5.091053067759286e-01 
2.100000e-01  5.092486986159998e-01 
2.150000e-01  5.088243913567653e-01 
2.200000e-01  5.080961228733961e-01 
2.250000e-01  5.073401289151622e-01 
2.300000e-01  5.067804114494591e-01 
2.350000e-01  5.065456108956095e-01 
2.400000e-01  5.066564012458495e-01 
2.450000e-01  5.070418517510680e-01 
2.500000e-01  5.075743071103535e-01 
2.550000e-01  5.081079245907724e-01 
2.600000e-01  5.085072649637256e-01 
2.650000e-01  5.086584327220968e-01 
2.700000e-01  5.084637083030116e-01 
2.750000e-01  5.078281694412515e-01 
2.800000e-01  5.066506065746500e-01 
2.850000e-01  5.048296200240324e-01 
2.900000e-01  5.022895544764810e-01 
2.950000e-01  4.990220502725787e-01 
3.000000e-01  4.951306787198035e-01 
3.050000e-01  4.908615354834625e-01 
3.100000e-01  4.866037995702402e-01 
3.150000e-01  4.828512594881141e-01 
3.200000e-01  4.801268266834545e-01 
3.250000e-01  4.788838445326696e-01 
3.300000e-01  4.794068664426068e-01 
3.350000e-01  4.817374965525960e-01 
3.400000e-01  4.856464858230298e-01 
3.450000e-01  4.906624110211035e-01 
3.500000e-01  4.961529077298595e-01 
3.550000e-01  5.014407422157989e-01 
3.600000e-01  5.059279423455043e-01 
3.650000e-01  5.091992815205570e-01 
3.700000e-01  5.110820695632652e-01 
3.750000e-01  5.116507944697561e-01 
3.800000e-01  5.111793754382254e-01 
3.850000e-01  5.100566013309331e-01 
3.900000e-01  5.086882216412071e-01 
3.950000e-01  5.074102341113563e-01 
4.000000e-01  5.064324117212592e-01 
4.050000e-01  5.058211553040859e-01 
4.100000e-01  5.055195518933744e-01 
4.150000e-01  5.053933120136282e-01 
4.200000e-01  5.052863819137267e-01 
4.250000e-01  5.050702782903503e-01 
4.300000e-01  5.046757561304234e-01 
4.350000e-01  5.041023007508598e-01 
4.400000e-01  5.034077343945036e-01 
4.450000e-01  5.026849584183881e-01 
4.500000e-01  5.020345186846309e-01 
4.550000e-01  5.015404534469123e-01 
4.600000e-01  5.012538434041133e-01 
4.650000e-01  5.011850963685143e-01 
4.700000e-01  5.013035178423872e-01 
4.750000e-01  5.015417642172516e-01 
4.800000e-01  5.018032149671922e-01 
4.850000e-01  5.019714406243028e-01 
4.900000e-01  5.019219199513668e-01 
4.950000e-01  5.015363450239276e-01 
5.000000e-01  5.007191123322385e-01 
5.050000e-01  4.994143023116847e-01 
5.100000e-01  4.976202623270288e-01 
5.150000e-01  4.953984592662030e-01 
5.200000e-01  4.928738675439855e-01 
5.250000e-01  4.902256726938360e-01 
5.300000e-01  4.876690059391396e-01 
5.350000e-01  4.854301650906408e-01 
5.400000e-01  4.837188546025339e-01 
5.450000e-01  4.827012493859721e-01 
5.500000e-01  4.824773366883005e-01 
5.550000e-01  4.830653692079440e-01 
5.600000e-01  4.843956563181614e-01 
5.650000e-01  4.863153678906449e-01 
5.700000e-01  4.886052927851214e-01 
5.750000e-01  4.910082290334487e-01 
5.800000e-01  4.932666796474557e-01 
5.850000e-01  4.951649705406204e-01 
5.900000e-01  4.965684508514808e-01 
5.950000e-01  4.974510594352993e-01 
6.000000e-01  4.979031911942975e-01 
6.050000e-01  4.981149512830887e-01 
6.100000e-01  4.983352166221123e-01 
6.150000e-01  4.988132330944369e-01 
6.200000e-01  4.997349689411104e-01 
6.250000e-01  5.011692845973638e-01 
6.300000e-01  5.030379356803897e-01 
6.350000e-01  5.051183788783348e-01 
6.400000e-01  5.070804514093504e-01 
6.450000e-01  5.085493842559686e-01 
6.500000e-01  5.091807661786278e-01 
6.550000e-01  5.087300240359806e-01 
6.600000e-01  5.071006378115553e-01 
6.650000e-01  5.043611541046239e-01 
6.700000e-01  5.007293028140762e-01 
6.750000e-01  4.965296543944607e-01 
6.800000e-01  4.921369102580154e-01 
6.850000e-01  4.879186521650113e-01 
6.900000e-01  4.841890965074024e-01 
6.950000e-01  4.811802997908233e-01 
7.000000e-01  4.790313275266969e-01 
7.050000e-01  4.777911843705276e-01 
7.100000e-01  4.774292180416384e-01 
7.150000e-01  4.778475499614934e-01 
7.200000e-01  4.788929889587071e-01 
7.250000e-01  4.803692313419665e-01 
7.300000e-01  4.820522588245273e-01 
7.350000e-01  4.837116709904675e-01 
7.400000e-01  4.851382485201876e-01 
7.450000e-01  4.861743984714690e-01 
7.500000e-01  4.867409477224194e-01 
7.550000e-01  4.868526078846843e-01 
7.600000e-01  4.866161737630341e-01 
7.650000e-01  4.862098489249166e-01 
7.700000e-01  4.858476472869779e-01 
7.750000e-01  4.857376257666073e-01 
7.800000e-01  4.860449160637840e-01 
7.850000e-01  4.868691461251910e-01 
7.900000e-01  4.882411520450914e-01 
7.950000e-01  4.901374005764672e-01 
8.000000e-01  4.925045312839040e-01 
8.050000e-01  4.952830768975470e-01 
8.100000e-01  4.984200393341178e-01 
8.150000e-01  5.018645025532682e-01 
8.200000e-01  5.055473597509810e-01 
8.250000e-01  5.093531140084243e-01 
8.300000e-01  5.130960863107386e-01 
8.350000e-01  5.165135350181935e-01 
8.400000e-01  5.192838667549527e-01 
8.450000e-01  5.210705456812089e-01 
8.500000e-01  5.215838668561221e-01 
8.550000e-01  5.206461883546097e-01 
8.600000e-01  5.182437166686381e-01 
8.650000e-01  5.145504352819644e-01 
8.700000e-01  5.099165658580930e-01 
8.750000e-01  5.048229626889420e-01 
8.800000e-01  4.998113038722443e-01 
8.850000e-01  4.954053948286468e-01 
8.900000e-01  4.920399661707088e-01 
8.950000e-01  4.900100778213196e-01 
9.000000e-01  4.894479622829706e-01 
9.050000e-01  4.903269523470397e-01 
9.100000e-01  4.924862127575663e-01 
9.150000e-01  4.956668716975922e-01 
9.200000e-01  4.995502775356208e-01 
9.250000e-01  5.037918140154724e-01 
9.300000e-01  5.080475729204514e-01 
9.350000e-01  5.119946461579051e-01 
9.400000e-01  5.153477214157278e-01 
9.450000e-01  5.178746600552353e-01 
9.500000e-01  5.194121848644281e-01 
9.550000e-01  5.198806111759340e-01 
9.600000e-01  5.192947442031350e-01 
9.650000e-01  5.177673981240689e-01 
9.700000e-01  5.155027145863754e-01 
9.750000e-01  5.127782764116096e-01 
9.800000e-01  5.099172754359685e-01 
9.850000e-01  5.072539862929437e-01 
9.900000e-01  5.050970091375396e-01 
9.950000e-01  5.036950032429961e-01 
1.000000e+00  5.032090833639224e-01 
