TITLE ="t=1.701947" 
VARIABLES = "x"                 "phi" 
ZONE I=201, ZONETYPE=Ordered, DATAPACKING=POINT
0.000000e+00  1.000129983812837e+00 
5.000000e-03  9.908700793905548e-01 
1.000000e-02  9.912173633254587e-01 
1.500000e-02  9.571206620905528e-01 
2.000000e-02  8.806937347892895e-01 
2.500000e-02  7.669614355766078e-01 
3.000000e-02  6.265110782416995e-01 
3.500000e-02  4.731608345758507e-01 
4.000000e-02  3.222468458051011e-01 
4.500000e-02  1.888865802630288e-01 
5.000000e-02  8.627910380689462e-02 
5.500000e-02  2.407124720147898e-02 
6.000000e-02  4.940263675490763e-03 
6.500000e-02  4.799210505006373e-03 
7.000000e-02  4.502891528960423e-03 
7.500000e-02  7.359266152934369e-03 
8.000000e-02  4.192753158312212e-02 
8.500000e-02  1.205744205095417e-01 
9.000000e-02  2.370799064417745e-01 
9.500000e-02  3.800862757154153e-01 
1.000000e-01  5.352362158524815e-01 
1.050000e-01  6.868305331588489e-01 
1.100000e-01  8.195609647639874e-01 
1.150000e-01  9.202156617840830e-01 
1.200000e-01  9.793457248038419e-01 
1.250000e-01  9.953500464729422e-01 
1.300000e-01  9.952457598118120e-01 
1.350000e-01  9.951015486821205e-01 
1.400000e-01  9.757854717377403e-01 
1.450000e-01  9.127685351492766e-01 
1.500000e-01  8.088606820073767e-01 
1.550000e-01  6.739206214233647e-01 
1.600000e-01  5.214094690166123e-01 
1.650000e-01  3.667379687781988e-01 
1.700000e-01  2.255546649525471e-01 
1.750000e-01  1.120174565502024e-01 
1.800000e-01  3.714332378995901e-02 
1.850000e-01  6.482622101573187e-03 
1.900000e-01  4.513025052714555e-03 
1.950000e-01  5.047238488395131e-03 
2.000000e-01  2.529485797299237e-02 
2.050000e-01  8.937996739638367e-02 
2.100000e-01  1.941713126850268e-01 
2.150000e-01  3.297000325043009e-01 
2.200000e-01  4.824386923800484e-01 
2.250000e-01  6.369512575480886e-01 
2.300000e-01  7.776064854723239e-01 
2.350000e-01  8.903050312933951e-01 
2.400000e-01  9.641283272448854e-01 
2.450000e-01  9.937292228365791e-01 
2.500000e-01  9.954275318101342e-01 
2.550000e-01  9.952048964029047e-01 
2.600000e-01  9.952955280208386e-01 
2.650000e-01  9.783162401144713e-01 
2.700000e-01  9.180124135742604e-01 
2.750000e-01  8.163673409602037e-01 
2.800000e-01  6.829560305513913e-01 
2.850000e-01  5.310674918410715e-01 
2.900000e-01  3.760432203133486e-01 
2.950000e-01  2.335697250201660e-01 
3.000000e-01  1.179470006886841e-01 
3.050000e-01  4.043359579883510e-02 
3.100000e-01  7.058270056698512e-03 
3.150000e-01  4.512347766386852e-03 
3.200000e-01  4.801780265677584e-03 
3.250000e-01  4.779368640594056e-03 
3.300000e-01  4.655208235233764e-03 
3.350000e-01  5.643795904720928e-03 
3.400000e-01  3.106614455337487e-02 
3.450000e-01  1.003684271434240e-01 
3.500000e-01  2.091226669895355e-01 
3.550000e-01  3.469037028727484e-01 
3.600000e-01  4.999710782007785e-01 
3.650000e-01  6.529064246307420e-01 
3.700000e-01  7.903311540096214e-01 
3.750000e-01  8.986362731374686e-01 
3.800000e-01  9.676846147235787e-01 
3.850000e-01  9.936851816205968e-01 
3.900000e-01  9.948671290369424e-01 
3.950000e-01  9.853941503885926e-01 
4.000000e-01  9.499228566114570e-01 
4.050000e-01  8.880605125699780e-01 
4.100000e-01  8.057328831037299e-01 
4.150000e-01  7.112352451782999e-01 
4.200000e-01  6.141808974609716e-01 
4.250000e-01  5.244687822956761e-01 
4.300000e-01  4.512254523968786e-01 
4.350000e-01  4.018248532382724e-01 
4.400000e-01  3.810852990493120e-01 
4.450000e-01  3.907306436560073e-01 
4.500000e-01  4.291929262235005e-01 
4.550000e-01  4.918000709756325e-01 
4.600000e-01  5.713102594518479e-01 
4.650000e-01  6.586935998723074e-01 
4.700000e-01  7.440603611872406e-01 
4.750000e-01  8.176347447867088e-01 
4.800000e-01  8.706470618774065e-01 
4.850000e-01  8.959724459746891e-01 
4.900000e-01  8.883654970314904e-01 
4.950000e-01  8.447237814345075e-01 
5.000000e-01  7.655265174679140e-01 
5.050000e-01  6.562328788035453e-01 
5.100000e-01  5.266080857562975e-01 
5.150000e-01  3.891430784726476e-01 
5.200000e-01  2.574068586214102e-01 
5.250000e-01  1.444425908726301e-01 
5.300000e-01  6.124838872250928e-02 
5.350000e-01  1.521015910097418e-02 
5.400000e-01  4.865937961600080e-03 
5.450000e-01  5.071096301699768e-03 
5.500000e-01  4.988025082308341e-03 
5.550000e-01  4.946220726173271e-03 
5.600000e-01  4.897311686878143e-03 
5.650000e-01  4.872710356312652e-03 
5.700000e-01  4.705363702815631e-03 
5.750000e-01  5.567506863289876e-03 
5.800000e-01  3.040162764296395e-02 
5.850000e-01  9.927474295814888e-02 
5.900000e-01  2.079335162240807e-01 
5.950000e-01  3.459651756775176e-01 
6.000000e-01  4.995759618717152e-01 
6.050000e-01  6.532420985819121e-01 
6.100000e-01  7.914311593687222e-01 
6.150000e-01  9.003226049505548e-01 
6.200000e-01  9.694526911992408e-01 
6.250000e-01  9.944546561045711e-01 
6.300000e-01  9.953481600651906e-01 
6.350000e-01  9.952243272472483e-01 
6.400000e-01  9.952445238627463e-01 
6.450000e-01  9.952402085263863e-01 
6.500000e-01  9.952506115594197e-01 
6.550000e-01  9.951884068327101e-01 
6.600000e-01  9.955678976627700e-01 
6.650000e-01  9.916584408118384e-01 
6.700000e-01  9.535632479087999e-01 
6.750000e-01  8.715525586135727e-01 
6.800000e-01  7.524199215158436e-01 
6.850000e-01  6.078311063746618e-01 
6.900000e-01  4.523209258874676e-01 
6.950000e-01  3.016293156388472e-01 
7.000000e-01  1.709656119872507e-01 
7.050000e-01  7.330906250740016e-02 
7.100000e-01  1.772036086410098e-02 
7.150000e-01  4.487194521208365e-03 
7.200000e-01  4.802336476872135e-03 
7.250000e-01  4.750869545243993e-03 
7.300000e-01  4.758784827034931e-03 
7.350000e-01  4.757344707116805e-03 
7.400000e-01  4.758234040480138e-03 
7.450000e-01  4.753209267450808e-03 
7.500000e-01  4.784772911153779e-03 
7.550000e-01  4.587530778324221e-03 
7.600000e-01  6.124443405387581e-03 
7.650000e-01  3.491075028663810e-02 
7.700000e-01  1.079240298220226e-01 
7.750000e-01  2.199768863237901e-01 
7.800000e-01  3.602267765295551e-01 
7.850000e-01  5.146194089408562e-01 
7.900000e-01  6.675367328086684e-01 
7.950000e-01  8.035230790069733e-01 
8.000000e-01  9.089999126142353e-01 
8.050000e-01  9.739147202425579e-01 
8.100000e-01  9.949328130868779e-01 
8.150000e-01  9.952879156236004e-01 
8.200000e-01  9.952349680568638e-01 
8.250000e-01  9.952433896978904e-01 
8.300000e-01  9.952412394726380e-01 
8.350000e-01  9.952466907667926e-01 
8.400000e-01  9.952126905640972e-01 
8.450000e-01  9.954238588811336e-01 
8.500000e-01  9.805012868796553e-01 
8.550000e-01  9.227132928119678e-01 
8.600000e-01  8.231853195594759e-01 
8.650000e-01  6.912218997615581e-01 
8.700000e-01  5.399491081880815e-01 
8.750000e-01  3.846406680850224e-01 
8.800000e-01  2.410146346889959e-01 
8.850000e-01  1.234994735763813e-01 
8.900000e-01  4.357468524123516e-02 
8.950000e-01  7.689523894817698e-03 
9.000000e-01  4.466514978254186e-03 
9.050000e-01  4.804963479254961e-03 
9.100000e-01  4.750269840721106e-03 
9.150000e-01  4.754773725279981e-03 
9.200000e-01  4.779990521385748e-03 
9.250000e-01  4.614270549510279e-03 
9.300000e-01  5.862927665357581e-03 
9.350000e-01  3.306872925878983e-02 
9.400000e-01  1.044904714285540e-01 
9.450000e-01  2.152656511508062e-01 
9.500000e-01  3.547028101083708e-01 
9.550000e-01  5.088380034925708e-01 
9.600000e-01  6.620813914542171e-01 
9.650000e-01  7.989412929109534e-01 
9.700000e-01  9.057413452496983e-01 
9.750000e-01  9.722673924035169e-01 
9.800000e-01  9.947714309059693e-01 
9.850000e-01  9.953099830377766e-01 
9.900000e-01  9.952316484608891e-01 
9.950000e-01  9.952440583880489e-01 
1.000000e+00  9.952418294121214e-01 
