TITLE ="t=117.103639" 
VARIABLES = "x"                 "phi" 
ZONE I=201, ZONETYPE=Ordered, DATAPACKING=POINT
0.000000e+00  1.016564195787250e+00 
5.000000e-03  9.243663045783511e-01 
1.000000e-02  8.056596833421781e-01 
1.500000e-02  6.583347583445879e-01 
2.000000e-02  4.970884040788874e-01 
2.500000e-02  3.382123501184481e-01 
3.000000e-02  1.977562504367061e-01 
3.500000e-02  8.973557812050666e-02 
4.000000e-02  2.441177181321170e-02 
4.500000e-02  4.739574667962464e-03 
5.000000e-02  4.700069493407320e-03 
5.500000e-02  4.621069418546174e-03 
6.000000e-02  5.494405498690738e-03 
6.500000e-02  3.039294138080309e-02 
7.000000e-02  9.951960086241791e-02 
7.500000e-02  2.084761365931829e-01 
8.000000e-02  3.467709323275938e-01 
8.500000e-02  5.005583385970606e-01 
9.000000e-02  6.542811165732995e-01 
9.500000e-02  7.923908369873609e-01 
1.000000e-01  9.010685994602956e-01 
1.050000e-01  9.698714291007265e-01 
1.100000e-01  9.945107741795225e-01 
1.150000e-01  9.953441473805236e-01 
1.200000e-01  9.952262437785672e-01 
1.250000e-01  9.952500045723113e-01 
1.300000e-01  9.952114513391946e-01 
1.350000e-01  9.954315627277917e-01 
1.400000e-01  9.806352243107841e-01 
1.450000e-01  9.230060435585401e-01 
1.500000e-01  8.236118409878932e-01 
1.550000e-01  6.917400094074346e-01 
1.600000e-01  5.405063397265722e-01 
1.650000e-01  3.851802291674301e-01 
1.700000e-01  2.414816275536864e-01 
1.750000e-01  1.238469453230804e-01 
1.800000e-01  4.376927979316731e-02 
1.850000e-01  7.722102777323093e-03 
1.900000e-01  4.518733408068643e-03 
1.950000e-01  4.518922284275510e-03 
2.000000e-01  1.683446433714727e-02 
2.050000e-01  7.123467527945873e-02 
2.100000e-01  1.678719465088357e-01 
2.150000e-01  2.978196432842725e-01 
2.200000e-01  4.481793156185516e-01 
2.250000e-01  6.037782739559956e-01 
2.300000e-01  7.488668780771135e-01 
2.350000e-01  8.688550423847647e-01 
2.400000e-01  9.519786473831238e-01 
2.450000e-01  9.912653689770805e-01 
2.500000e-01  9.955941056659109e-01 
2.550000e-01  9.951369485853001e-01 
2.600000e-01  9.955478238416057e-01 
2.650000e-01  9.827931784315325e-01 
2.700000e-01  9.278648758554957e-01 
2.750000e-01  8.307733025648049e-01 
2.800000e-01  7.005046608249192e-01 
2.850000e-01  5.499935931552239e-01 
2.900000e-01  3.944295076618088e-01 
2.950000e-01  2.495582576822203e-01 
3.000000e-01  1.299459385011559e-01 
3.050000e-01  4.731357158862782e-02 
3.100000e-01  8.555079381866088e-03 
3.150000e-01  4.422027486614509e-03 
3.200000e-01  4.813469879785400e-03 
3.250000e-01  4.744573284953851e-03 
3.300000e-01  4.783823222222298e-03 
3.350000e-01  4.599702923443717e-03 
3.400000e-01  5.999561179268872e-03 
3.450000e-01  3.405141104631693e-02 
3.500000e-01  1.063281657000560e-01 
3.550000e-01  2.177907507983039e-01 
3.600000e-01  3.576662580281214e-01 
3.650000e-01  5.119419685933133e-01 
3.700000e-01  6.650126155650152e-01 
3.750000e-01  8.014055699103050e-01 
3.800000e-01  9.074967173225295e-01 
3.850000e-01  9.731582803748217e-01 
3.900000e-01  9.948606876035746e-01 
3.950000e-01  9.952979818850182e-01 
4.000000e-01  9.952335578204842e-01 
4.050000e-01  9.952437267849079e-01 
4.100000e-01  9.952421599977418e-01 
4.150000e-01  9.952424241722256e-01 
4.200000e-01  9.952424010557569e-01 
4.250000e-01  9.952424310006843e-01 
4.300000e-01  9.952424001979574e-01 
4.350000e-01  9.952427147553958e-01 
4.400000e-01  9.952408244322057e-01 
4.450000e-01  9.952530303681935e-01 
4.500000e-01  9.951741724099515e-01 
4.550000e-01  9.956473957796608e-01 
4.600000e-01  9.881609015675160e-01 
4.650000e-01  9.416041453958510e-01 
4.700000e-01  8.518436085957556e-01 
4.750000e-01  7.268541518862008e-01 
4.800000e-01  5.789712837909786e-01 
4.850000e-01  4.230936607752519e-01 
4.900000e-01  2.750010622482444e-01 
4.950000e-01  1.496153221832138e-01 
5.000000e-01  5.931705409199632e-02 
5.050000e-01  1.215838540607006e-02 
5.100000e-01  4.352431094836479e-03 
5.150000e-01  4.825844728500062e-03 
5.200000e-01  4.746914413166585e-03 
5.250000e-01  4.759093344454649e-03 
5.300000e-01  4.757168888572722e-03 
5.350000e-01  4.757450778035531e-03 
5.400000e-01  4.757385128206362e-03 
5.450000e-01  4.757392981251375e-03 
5.500000e-01  4.757266316720836e-03 
5.550000e-01  4.757948431751764e-03 
5.600000e-01  4.753463451942959e-03 
5.650000e-01  4.782165703082585e-03 
5.700000e-01  4.602717164273673e-03 
5.750000e-01  5.973096876452449e-03 
5.800000e-01  3.386455110330602e-02 
5.850000e-01  1.059796234053897e-01 
5.900000e-01  2.173123541951868e-01 
5.950000e-01  3.571052282219989e-01 
6.000000e-01  5.113547287566730e-01 
6.050000e-01  6.644584672277727e-01 
6.100000e-01  8.009401586922152e-01 
6.150000e-01  9.071657414114230e-01 
6.200000e-01  9.729909898889534e-01 
6.250000e-01  9.948443254763385e-01 
6.300000e-01  9.953002945741665e-01 
6.350000e-01  9.952333013717375e-01 
6.400000e-01  9.952441978735141e-01 
6.450000e-01  9.952409307772929e-01 
6.500000e-01  9.952520576997164e-01 
6.550000e-01  9.951822949450064e-01 
6.600000e-01  9.956040664511498e-01 
6.650000e-01  9.907590193738052e-01 
6.700000e-01  9.500443009997853e-01 
6.750000e-01  8.655949566026537e-01 
6.800000e-01  7.445915973263509e-01 
6.850000e-01  5.989147430220216e-01 
6.900000e-01  4.432194306985455e-01 
6.950000e-01  2.932657090061817e-01 
7.000000e-01  1.641812447511502e-01 
7.050000e-01  6.876657051724182e-02 
7.100000e-01  1.578397965137992e-02 
7.150000e-01  4.413753192460472e-03 
7.200000e-01  4.815115910457870e-03 
7.250000e-01  4.748807589313790e-03 
7.300000e-01  4.759011610838011e-03 
7.350000e-01  4.757208672659195e-03 
7.400000e-01  4.758225996602467e-03 
7.450000e-01  4.752770141838400e-03 
7.500000e-01  4.787103796877264e-03 
7.550000e-01  4.573141588998226e-03 
7.600000e-01  6.274101917146313e-03 
7.650000e-01  3.589777930464770e-02 
7.700000e-01  1.097455466066312e-01 
7.750000e-01  2.224655718765670e-01 
7.800000e-01  3.631367471368937e-01 
7.850000e-01  5.176579759299469e-01 
7.900000e-01  6.703971163958937e-01 
7.950000e-01  8.059181793721567e-01 
8.000000e-01  9.106947875363958e-01 
8.050000e-01  9.747605755990818e-01 
8.100000e-01  9.950096717259581e-01 
8.150000e-01  9.952769931339390e-01 
8.200000e-01  9.952366602264398e-01 
8.250000e-01  9.952431350173675e-01 
8.300000e-01  9.952410393511690e-01 
8.350000e-01  9.952481322267415e-01 
8.400000e-01  9.952032519690488e-01 
8.450000e-01  9.954797204789294e-01 
8.500000e-01  9.815712041415772e-01 
8.550000e-01  9.250871789023806e-01 
8.600000e-01  8.266665185836871e-01 
8.650000e-01  6.954700141246026e-01 
8.700000e-01  5.445371385441815e-01 
8.750000e-01  3.891039683865735e-01 
8.800000e-01  2.449021139340799e-01 
8.850000e-01  1.264236901511154e-01 
8.900000e-01  4.525928713977549e-02 
8.950000e-01  8.064531285512924e-03 
9.000000e-01  4.445651055070107e-03 
9.050000e-01  4.808645769949572e-03 
9.100000e-01  4.749679833811953e-03 
9.150000e-01  4.755239578943960e-03 
9.200000e-01  4.777773550122754e-03 
9.250000e-01  4.627944853143619e-03 
9.300000e-01  5.737865113554542e-03 
9.350000e-01  3.212587675607183e-02 
9.400000e-01  1.027145871049766e-01 
9.450000e-01  2.128181333683631e-01 
9.500000e-01  3.518249071445465e-01 
9.550000e-01  5.058188752383935e-01 
9.600000e-01  6.592257003640589e-01 
9.650000e-01  7.965356711359156e-01 
9.700000e-01  9.040220911890240e-01 
9.750000e-01  9.713875433670150e-01 
9.800000e-01  9.946787628949216e-01 
9.850000e-01  9.953220878047286e-01 
9.900000e-01  9.952297721229878e-01 
9.950000e-01  9.952444257053025e-01 
1.000000e+00  9.952417947214687e-01 
