TITLE ="t=37.103639" 
VARIABLES = "x"                 "phi" 
ZONE I=201, ZONETYPE=Ordered, DATAPACKING=POINT
0.000000e+00  1.013998329566538e+00 
5.000000e-03  9.355921924297611e-01 
1.000000e-02  8.323812078804644e-01 
1.500000e-02  6.967793184749318e-01 
2.000000e-02  5.422301180632249e-01 
2.500000e-02  3.843209610078452e-01 
3.000000e-02  2.390222381617114e-01 
3.500000e-02  1.209188237444094e-01 
4.000000e-02  4.152477592805123e-02 
4.500000e-02  7.099638238222130e-03 
5.000000e-02  4.452080441199240e-03 
5.500000e-02  4.799886447618796e-03 
6.000000e-02  4.543216693737268e-03 
6.500000e-02  1.960965576413175e-02 
7.000000e-02  7.770701504361928e-02 
7.500000e-02  1.775516333468092e-01 
8.000000e-02  3.097673794542528e-01 
8.500000e-02  4.611883533876889e-01 
9.000000e-02  6.165185859758401e-01 
9.500000e-02  7.600338105455574e-01 
1.000000e-01  8.773150463090672e-01 
1.050000e-01  9.569077533278183e-01 
1.100000e-01  9.924188917078721e-01 
1.150000e-01  9.955284909877574e-01 
1.200000e-01  9.951972504013427e-01 
1.250000e-01  9.952490056624909e-01 
1.300000e-01  9.952520669080692e-01 
1.350000e-01  9.951753805461645e-01 
1.400000e-01  9.767524342652306e-01 
1.450000e-01  9.147507933051858e-01 
1.500000e-01  8.116852809115245e-01 
1.550000e-01  6.773101068077803e-01 
1.600000e-01  5.250231531675764e-01 
1.650000e-01  3.702104962263832e-01 
1.700000e-01  2.285361869830060e-01 
1.750000e-01  1.142126149085630e-01 
1.800000e-01  3.834868414064654e-02 
1.850000e-01  6.678400970272263e-03 
1.900000e-01  4.528874247944093e-03 
1.950000e-01  4.846585509644507e-03 
2.000000e-01  2.280080360826504e-02 
2.050000e-01  8.428696806294014e-02 
2.100000e-01  1.869214850739451e-01 
2.150000e-01  3.210037487354968e-01 
2.200000e-01  4.731687609200802e-01 
2.250000e-01  6.280439153029719e-01 
2.300000e-01  7.699583208491899e-01 
2.350000e-01  8.846729485965061e-01 
2.400000e-01  9.610332120484258e-01 
2.450000e-01  9.932139667268448e-01 
2.500000e-01  9.954748539921979e-01 
2.550000e-01  9.951816860848857e-01 
2.600000e-01  9.953955817732892e-01 
2.650000e-01  9.798533186486296e-01 
2.700000e-01  9.212947801427938e-01 
2.750000e-01  8.211149371559057e-01 
2.800000e-01  6.887022914138591e-01 
2.850000e-01  5.372336614758976e-01 
2.900000e-01  3.820045001985622e-01 
2.950000e-01  2.387242697263932e-01 
3.000000e-01  1.217832165715734e-01 
3.050000e-01  4.259449978858965e-02 
3.100000e-01  7.482392029098319e-03 
3.150000e-01  4.479072442623151e-03 
3.200000e-01  4.803447695473816e-03 
3.250000e-01  4.745956421680239e-03 
3.300000e-01  4.784384675109271e-03 
3.350000e-01  4.594752137723953e-03 
3.400000e-01  6.048599638825801e-03 
3.450000e-01  3.439336270348133e-02 
3.500000e-01  1.069645784828135e-01 
3.550000e-01  2.186634222939567e-01 
3.600000e-01  3.586890575386571e-01 
3.650000e-01  5.130120716476959e-01 
3.700000e-01  6.660220095163275e-01 
3.750000e-01  8.022529432931188e-01 
3.800000e-01  9.080989019239972e-01 
3.850000e-01  9.734620881981839e-01 
3.900000e-01  9.948900747784808e-01 
3.950000e-01  9.952939444641086e-01 
4.000000e-01  9.952341893667573e-01 
4.050000e-01  9.952436205948187e-01 
4.100000e-01  9.952421725559878e-01 
4.150000e-01  9.952424220053512e-01 
4.200000e-01  9.952424050198128e-01 
4.250000e-01  9.952424378228675e-01 
4.300000e-01  9.952424104892114e-01 
4.350000e-01  9.952427277793995e-01 
4.400000e-01  9.952408444216441e-01 
4.450000e-01  9.952530302743491e-01 
4.500000e-01  9.951743293090934e-01 
4.550000e-01  9.956466869306875e-01 
4.600000e-01  9.883832814644793e-01 
4.650000e-01  9.422573684572979e-01 
4.700000e-01  8.528827833399628e-01 
4.750000e-01  7.281786153884428e-01 
4.800000e-01  5.804478946803251e-01 
4.850000e-01  4.245724678748177e-01 
4.900000e-01  2.763318758362820e-01 
4.950000e-01  1.506643054794501e-01 
5.000000e-01  5.998242550552370e-02 
5.050000e-01  1.239313906946022e-02 
5.100000e-01  4.352963133763091e-03 
5.150000e-01  4.825787689512273e-03 
5.200000e-01  4.746966056575500e-03 
5.250000e-01  4.759131233788702e-03 
5.300000e-01  4.757212000073629e-03 
5.350000e-01  4.757496054856370e-03 
5.400000e-01  4.757433397778819e-03 
5.450000e-01  4.757441904413181e-03 
5.500000e-01  4.757330399097016e-03 
5.550000e-01  4.757934879934494e-03 
5.600000e-01  4.753965663811878e-03 
5.650000e-01  4.779361864462988e-03 
5.700000e-01  4.620145099332595e-03 
5.750000e-01  5.808979984677269e-03 
5.800000e-01  3.266688378054666e-02 
5.850000e-01  1.037349847866294e-01 
5.900000e-01  2.142252659483348e-01 
5.950000e-01  3.534801323363796e-01 
6.000000e-01  5.075559354438691e-01 
6.050000e-01  6.608693511559935e-01 
6.100000e-01  7.979209613728911e-01 
6.150000e-01  9.050129367464783e-01 
6.200000e-01  9.718956169559311e-01 
6.250000e-01  9.947328936631989e-01 
6.300000e-01  9.953151662383561e-01 
6.350000e-01  9.952309989706402e-01 
6.400000e-01  9.952446149993543e-01 
6.450000e-01  9.952410406588061e-01 
6.500000e-01  9.952514715225024e-01 
6.550000e-01  9.951866700710050e-01 
6.600000e-01  9.955799492880201e-01 
6.650000e-01  9.913954169634890e-01 
6.700000e-01  9.524878777623508e-01 
6.750000e-01  8.697167178008048e-01 
6.800000e-01  7.499980502006964e-01 
6.850000e-01  6.050650838208402e-01 
6.900000e-01  4.494907061512292e-01 
6.950000e-01  2.990218581657278e-01 
7.000000e-01  1.688432381407182e-01 
7.050000e-01  7.187925414730571e-02 
7.100000e-01  1.709918707027552e-02 
7.150000e-01  4.460864099823637e-03 
7.200000e-01  4.806879886036881e-03 
7.250000e-01  4.750138274361488e-03 
7.300000e-01  4.758867257926964e-03 
7.350000e-01  4.757298279351850e-03 
7.400000e-01  4.758229070422564e-03 
7.450000e-01  4.753075374428960e-03 
7.500000e-01  4.785465944880794e-03 
7.550000e-01  4.583227762809204e-03 
7.600000e-01  6.168428614906740e-03 
7.650000e-01  3.520558455420279e-02 
7.700000e-01  1.084694807366260e-01 
7.750000e-01  2.207229226988508e-01 
7.800000e-01  3.610997179584872e-01 
7.850000e-01  5.155314694918564e-01 
7.900000e-01  6.683958361542285e-01 
7.950000e-01  8.042429942025259e-01 
8.000000e-01  9.095100040978034e-01 
8.050000e-01  9.741701171414475e-01 
8.100000e-01  9.949564497605745e-01 
8.150000e-01  9.952845888199878e-01 
8.200000e-01  9.952354845508680e-01 
8.250000e-01  9.952433128937654e-01 
8.300000e-01  9.952411742967554e-01 
8.350000e-01  9.952471566611555e-01 
8.400000e-01  9.952096426378575e-01 
8.450000e-01  9.954420237560829e-01 
8.500000e-01  9.808347539621831e-01 
8.550000e-01  9.234473727999889e-01 
8.600000e-01  8.242589165344244e-01 
8.650000e-01  6.925300127329881e-01 
8.700000e-01  5.413602661963010e-01 
8.750000e-01  3.860119893643751e-01 
8.800000e-01  2.422075701582895e-01 
8.850000e-01  1.243951977667960e-01 
8.900000e-01  4.408868268342127e-02 
8.950000e-01  7.801361897320293e-03 
9.000000e-01  4.460010645856377e-03 
9.050000e-01  4.806105015566836e-03 
9.100000e-01  4.750084399234766e-03 
9.150000e-01  4.754910084713271e-03 
9.200000e-01  4.779333986784888e-03 
9.250000e-01  4.618295231579451e-03 
9.300000e-01  5.825562567973120e-03 
9.350000e-01  3.279159959502823e-02 
9.400000e-01  1.039698292489901e-01 
9.450000e-01  2.145488951923623e-01 
9.500000e-01  3.538606201170537e-01 
9.550000e-01  5.079550138147990e-01 
9.600000e-01  6.612467087670452e-01 
9.650000e-01  7.982386884623432e-01 
9.700000e-01  9.052398094374854e-01 
9.750000e-01  9.720114796140564e-01 
9.800000e-01  9.947449498095156e-01 
9.850000e-01  9.953134842487134e-01 
9.900000e-01  9.952311098045773e-01 
9.950000e-01  9.952441675635820e-01 
1.000000e+00  9.952418226501970e-01 
