TITLE ="t=0.000085" 
VARIABLES = "x"                 "phi" 
ZONE I=201, ZONETYPE=Ordered, DATAPACKING=POINT
0.000000e+00  7.433694931782907e-01 
5.000000e-03  5.350938156646031e-01 
1.000000e-02  4.382335713591577e-01 
1.500000e-02  4.586409019302700e-01 
2.000000e-02  4.977426503464899e-01 
2.500000e-02  5.172286590844057e-01 
3.000000e-02  5.151040943329070e-01 
3.500000e-02  5.075991263486507e-01 
4.000000e-02  5.069752941114367e-01 
4.500000e-02  5.120691290591823e-01 
5.000000e-02  5.137432018551094e-01 
5.500000e-02  5.050867714092855e-01 
6.000000e-02  4.880399535725169e-01 
6.500000e-02  4.725021903522165e-01 
7.000000e-02  4.691392798438954e-01 
7.500000e-02  4.814639853953910e-01 
8.000000e-02  5.034399167804749e-01 
8.500000e-02  5.241801793104089e-01 
9.000000e-02  5.352181268320697e-01 
9.500000e-02  5.345332963276596e-01 
1.000000e-01  5.254756437885795e-01 
1.050000e-01  5.131347631545992e-01 
1.100000e-01  5.015196725283028e-01 
1.150000e-01  4.928092584383785e-01 
1.200000e-01  4.879901237169205e-01 
1.250000e-01  4.876442742131599e-01 
1.300000e-01  4.919240283938046e-01 
1.350000e-01  4.995997913570561e-01 
1.400000e-01  5.073111188158340e-01 
1.450000e-01  5.105579410666325e-01 
1.500000e-01  5.064690914807057e-01 
1.550000e-01  4.962105150979351e-01 
1.600000e-01  4.846812940239858e-01 
1.650000e-01  4.775131676043549e-01 
1.700000e-01  4.778113112185828e-01 
1.750000e-01  4.850034908226251e-01 
1.800000e-01  4.960106903045007e-01 
1.850000e-01  5.071789727964514e-01 
1.900000e-01  5.155353574553632e-01 
1.950000e-01  5.191922548224319e-01 
2.000000e-01  5.175486833586657e-01 
2.050000e-01  5.116592183047479e-01 
2.100000e-01  5.043149070339615e-01 
2.150000e-01  4.990926043796212e-01 
2.200000e-01  4.984442801859883e-01 
2.250000e-01  5.020968130459011e-01 
2.300000e-01  5.071936570834297e-01 
2.350000e-01  5.102934604566114e-01 
2.400000e-01  5.097985750281252e-01 
2.450000e-01  5.070650825035311e-01 
2.500000e-01  5.053730416714073e-01 
2.550000e-01  5.072494682362466e-01 
2.600000e-01  5.118594009210385e-01 
2.650000e-01  5.148323506535529e-01 
2.700000e-01  5.116931327010372e-01 
2.750000e-01  5.026573536001191e-01 
2.800000e-01  4.938965132514532e-01 
2.850000e-01  4.926364470122723e-01 
2.900000e-01  4.999107426542346e-01 
2.950000e-01  5.085509216698447e-01 
3.000000e-01  5.095030061211431e-01 
3.050000e-01  5.005716284482976e-01 
3.100000e-01  4.883824385896900e-01 
3.150000e-01  4.812959874534332e-01 
3.200000e-01  4.808913330229730e-01 
3.250000e-01  4.812638115264554e-01 
3.300000e-01  4.767845065859583e-01 
3.350000e-01  4.696581195028958e-01 
3.400000e-01  4.688193681128024e-01 
3.450000e-01  4.809269687035764e-01 
3.500000e-01  5.025629490160429e-01 
3.550000e-01  5.217083700931880e-01 
3.600000e-01  5.274407107047606e-01 
3.650000e-01  5.189616971677258e-01 
3.700000e-01  5.057058703628247e-01 
3.750000e-01  4.986418852563771e-01 
3.800000e-01  5.010642976021707e-01 
3.850000e-01  5.072667917222912e-01 
3.900000e-01  5.095820858833188e-01 
3.950000e-01  5.061564360841804e-01 
4.000000e-01  5.017432020904107e-01 
4.050000e-01  5.016720521089245e-01 
4.100000e-01  5.062137372792057e-01 
4.150000e-01  5.111096188114952e-01 
4.200000e-01  5.124767294978525e-01 
4.250000e-01  5.099710571373661e-01 
4.300000e-01  5.055526219705644e-01 
4.350000e-01  5.009440501771165e-01 
4.400000e-01  4.972984495014968e-01 
4.450000e-01  4.961893217459865e-01 
4.500000e-01  4.988882440470008e-01 
4.550000e-01  5.041183927381224e-01 
4.600000e-01  5.078923945273968e-01 
4.650000e-01  5.069927141874531e-01 
4.700000e-01  5.024742826733796e-01 
4.750000e-01  4.986293176581917e-01 
4.800000e-01  4.981943422889231e-01 
4.850000e-01  4.995386471779985e-01 
4.900000e-01  4.993756760170444e-01 
4.950000e-01  4.975299296774536e-01 
5.000000e-01  4.974223642680726e-01 
5.050000e-01  5.012731525635107e-01 
5.100000e-01  5.060397376564940e-01 
5.150000e-01  5.056864420779018e-01 
5.200000e-01  4.976643373324429e-01 
5.250000e-01  4.860988245335803e-01 
5.300000e-01  4.779912530257077e-01 
5.350000e-01  4.769060597838183e-01 
5.400000e-01  4.809556825873506e-01 
5.450000e-01  4.860976550394737e-01 
5.500000e-01  4.897922930724275e-01 
5.550000e-01  4.912519180345742e-01 
5.600000e-01  4.899925496750691e-01 
5.650000e-01  4.861127654874070e-01 
5.700000e-01  4.818992311617288e-01 
5.750000e-01  4.813296690283728e-01 
5.800000e-01  4.866489806493314e-01 
5.850000e-01  4.957568703627773e-01 
5.900000e-01  5.038441173091632e-01 
5.950000e-01  5.075295551447722e-01 
6.000000e-01  5.067467993347257e-01 
6.050000e-01  5.029508017241121e-01 
6.100000e-01  4.971481628428377e-01 
6.150000e-01  4.907773857322509e-01 
6.200000e-01  4.873338379066749e-01 
6.250000e-01  4.906198879654413e-01 
6.300000e-01  5.002475042262787e-01 
6.350000e-01  5.101889327990686e-01 
6.400000e-01  5.137511596782239e-01 
6.450000e-01  5.103295419487676e-01 
6.500000e-01  5.060042254073507e-01 
6.550000e-01  5.066363326835432e-01 
6.600000e-01  5.110931070529114e-01 
6.650000e-01  5.124050179066129e-01 
6.700000e-01  5.055385600455053e-01 
6.750000e-01  4.929550921544299e-01 
6.800000e-01  4.820397700834574e-01 
6.850000e-01  4.779138138433825e-01 
6.900000e-01  4.796910625559369e-01 
6.950000e-01  4.832284269704311e-01 
7.000000e-01  4.857665691015590e-01 
7.050000e-01  4.868948035390726e-01 
7.100000e-01  4.861894830780291e-01 
7.150000e-01  4.822836619050854e-01 
7.200000e-01  4.753845086514815e-01 
7.250000e-01  4.695179371960780e-01 
7.300000e-01  4.701826011468123e-01 
7.350000e-01  4.788769783074350e-01 
7.400000e-01  4.906785536833374e-01 
7.450000e-01  4.981712582799585e-01 
7.500000e-01  4.977702253724012e-01 
7.550000e-01  4.919034107285462e-01 
7.600000e-01  4.855434439510905e-01 
7.650000e-01  4.817130873715360e-01 
7.700000e-01  4.805005700282713e-01 
7.750000e-01  4.810255525121062e-01 
7.800000e-01  4.828814748761914e-01 
7.850000e-01  4.858191287879692e-01 
7.900000e-01  4.893479790452538e-01 
7.950000e-01  4.932012676193380e-01 
8.000000e-01  4.974049796772206e-01 
8.050000e-01  5.012934218312296e-01 
8.100000e-01  5.032293242792739e-01 
8.150000e-01  5.024100203200740e-01 
8.200000e-01  5.007486222743285e-01 
8.250000e-01  5.016902247437913e-01 
8.300000e-01  5.065762206747324e-01 
8.350000e-01  5.129474117998180e-01 
8.400000e-01  5.172662892490583e-01 
8.450000e-01  5.189373853581098e-01 
8.500000e-01  5.205995355110153e-01 
8.550000e-01  5.241733425338015e-01 
8.600000e-01  5.274371113678642e-01 
8.650000e-01  5.254297450124187e-01 
8.700000e-01  5.154630396715132e-01 
8.750000e-01  5.004894112585031e-01 
8.800000e-01  4.873658901857886e-01 
8.850000e-01  4.817901113923519e-01 
8.900000e-01  4.845983656252451e-01 
8.950000e-01  4.921695450139914e-01 
9.000000e-01  4.995679794264739e-01 
9.050000e-01  5.032802528112541e-01 
9.100000e-01  5.021795863751862e-01 
9.150000e-01  4.975832287017925e-01 
9.200000e-01  4.930302402819649e-01 
9.250000e-01  4.929068170287184e-01 
9.300000e-01  4.995439575583656e-01 
9.350000e-01  5.108973709820802e-01 
9.400000e-01  5.215574999873480e-01 
9.450000e-01  5.267062813517559e-01 
9.500000e-01  5.253292498438087e-01 
9.550000e-01  5.199315432419247e-01 
9.600000e-01  5.140158760577710e-01 
9.650000e-01  5.102862478677270e-01 
9.700000e-01  5.101772624096755e-01 
9.750000e-01  5.132060236771780e-01 
9.800000e-01  5.162248359704272e-01 
9.850000e-01  5.148705335415036e-01 
9.900000e-01  5.076127337156869e-01 
9.950000e-01  4.984614686947857e-01 
1.000000e+00  4.942772044540084e-01 
