TITLE ="t=87.103639" 
VARIABLES = "x"                 "phi" 
ZONE I=201, ZONETYPE=Ordered, DATAPACKING=POINT
0.000000e+00  1.016564127688180e+00 
5.000000e-03  9.243666130434903e-01 
1.000000e-02  8.056604177867618e-01 
1.500000e-02  6.583358186152045e-01 
2.000000e-02  4.970896540569242e-01 
2.500000e-02  3.382136316179487e-01 
3.000000e-02  1.977573990239590e-01 
3.500000e-02  8.973643874991320e-02 
4.000000e-02  2.441221294871887e-02 
4.500000e-02  4.739526347617084e-03 
5.000000e-02  4.700499222269048e-03 
5.500000e-02  4.618680041236111e-03 
6.000000e-02  5.514772426391598e-03 
6.500000e-02  3.056503931313050e-02 
7.000000e-02  9.984913482959495e-02 
7.500000e-02  2.089333646158089e-01 
8.000000e-02  3.473108349534100e-01 
8.500000e-02  5.011266837277937e-01 
9.000000e-02  6.548205451320225e-01 
9.500000e-02  7.928471735482576e-01 
1.000000e-01  9.013969414083571e-01 
1.050000e-01  9.700422557180407e-01 
1.100000e-01  9.945306775990842e-01 
1.150000e-01  9.953416693736983e-01 
1.200000e-01  9.952269658957600e-01 
1.250000e-01  9.952477440046336e-01 
1.300000e-01  9.952255849364868e-01 
1.350000e-01  9.953458721283904e-01 
1.400000e-01  9.791833970942712e-01 
1.450000e-01  9.198567510391095e-01 
1.500000e-01  8.190295822102185e-01 
1.550000e-01  6.861732706763506e-01 
1.600000e-01  5.345146443078067e-01 
1.650000e-01  3.793701618565513e-01 
1.700000e-01  2.364400090479693e-01 
1.750000e-01  1.200756020490179e-01 
1.800000e-01  4.162311855470416e-02 
1.850000e-01  7.278638880877376e-03 
1.900000e-01  4.527280151614176e-03 
1.950000e-01  4.611215126816938e-03 
2.000000e-01  1.896450336756735e-02 
2.050000e-01  7.607558700927262e-02 
2.100000e-01  1.750289017378220e-01 
2.150000e-01  3.065935169349915e-01 
2.200000e-01  4.576881704290876e-01 
2.250000e-01  6.130587685365404e-01 
2.300000e-01  7.569804560799968e-01 
2.350000e-01  8.749920727291577e-01 
2.400000e-01  9.555568611038262e-01 
2.450000e-01  9.921183460381594e-01 
2.500000e-01  9.955514293701928e-01 
2.550000e-01  9.951522741837110e-01 
2.600000e-01  9.954990111634697e-01 
2.650000e-01  9.817288040380886e-01 
2.700000e-01  9.254349406996528e-01 
2.750000e-01  8.271757863829133e-01 
2.800000e-01  6.960911154072350e-01 
2.850000e-01  5.452078376551404e-01 
2.900000e-01  3.897565835617008e-01 
2.950000e-01  2.454709623609375e-01 
3.000000e-01  1.268523715463758e-01 
3.050000e-01  4.550756181124693e-02 
3.100000e-01  8.121784275021273e-03 
3.150000e-01  4.442536897497542e-03 
3.200000e-01  4.809827624489206e-03 
3.250000e-01  4.745063225787199e-03 
3.300000e-01  4.784031606618064e-03 
3.350000e-01  4.597838106794237e-03 
3.400000e-01  6.017902075632978e-03 
3.450000e-01  3.417997520913602e-02 
3.500000e-01  1.065676333847007e-01 
3.550000e-01  2.181192331974781e-01 
3.600000e-01  3.580513384437202e-01 
3.650000e-01  5.123449354152675e-01 
3.700000e-01  6.653927946937455e-01 
3.750000e-01  8.017248020340014e-01 
3.800000e-01  9.077236670751403e-01 
3.850000e-01  9.732728897568765e-01 
3.900000e-01  9.948718362190346e-01 
3.950000e-01  9.952964551901909e-01 
4.000000e-01  9.952337968099690e-01 
4.050000e-01  9.952436866513643e-01 
4.100000e-01  9.952421647700692e-01 
4.150000e-01  9.952424233567990e-01 
4.200000e-01  9.952424025423878e-01 
4.250000e-01  9.952424335526104e-01 
4.300000e-01  9.952424040376000e-01 
4.350000e-01  9.952427196599624e-01 
4.400000e-01  9.952408316457408e-01 
4.450000e-01  9.952530319391832e-01 
4.500000e-01  9.951742204549999e-01 
4.550000e-01  9.956471889267892e-01 
4.600000e-01  9.882443406753736e-01 
4.650000e-01  9.418480732572676e-01 
4.700000e-01  8.522311989020476e-01 
4.750000e-01  7.273478512506387e-01 
4.800000e-01  5.795214602680641e-01 
4.850000e-01  4.236444424102997e-01 
4.900000e-01  2.754965112502468e-01 
4.950000e-01  1.500056146604440e-01 
5.000000e-01  5.956432782202825e-02 
5.050000e-01  1.224523080844789e-02 
5.100000e-01  4.352566083429525e-03 
5.150000e-01  4.825835024584429e-03 
5.200000e-01  4.746931910442251e-03 
5.250000e-01  4.759107746041297e-03 
5.300000e-01  4.757184914493768e-03 
5.350000e-01  4.757467656926432e-03 
5.400000e-01  4.757403114241898e-03 
5.450000e-01  4.757411190413315e-03 
5.500000e-01  4.757290289477687e-03 
5.550000e-01  4.757942716011508e-03 
5.600000e-01  4.753654749054454e-03 
5.650000e-01  4.781093602827993e-03 
5.700000e-01  4.609363171973947e-03 
5.750000e-01  5.909466840673898e-03 
5.800000e-01  3.340839784258641e-02 
5.850000e-01  1.051270615562135e-01 
5.900000e-01  2.161411816036132e-01 
5.950000e-01  3.557309806208580e-01 
6.000000e-01  5.099155323197108e-01 
6.050000e-01  6.630995740466338e-01 
6.100000e-01  7.997979587612933e-01 
6.150000e-01  9.063523704764666e-01 
6.200000e-01  9.725784927653313e-01 
6.250000e-01  9.948031811233069e-01 
6.300000e-01  9.953058532394953e-01 
6.350000e-01  9.952324431550497e-01 
6.400000e-01  9.952443550286798e-01 
6.450000e-01  9.952409716473715e-01 
6.500000e-01  9.952518520010838e-01 
6.550000e-01  9.951838584586601e-01 
6.600000e-01  9.955954960654262e-01 
6.650000e-01  9.910044247208737e-01 
6.700000e-01  9.509627450394443e-01 
6.750000e-01  8.671363857764043e-01 
6.800000e-01  7.466086212486598e-01 
6.850000e-01  6.012054825533938e-01 
6.900000e-01  4.455517822171587e-01 
6.950000e-01  2.954030605395773e-01 
7.000000e-01  1.659085709229857e-01 
7.050000e-01  6.991528670876671e-02 
7.100000e-01  1.626320938895256e-02 
7.150000e-01  4.429528533246675e-03 
7.200000e-01  4.812346850497217e-03 
7.250000e-01  4.749259790311417e-03 
7.300000e-01  4.758966969366400e-03 
7.350000e-01  4.757242632485931e-03 
7.400000e-01  4.758228355156387e-03 
7.450000e-01  4.752886668215554e-03 
7.500000e-01  4.786482305389089e-03 
7.550000e-01  4.576966758036974e-03 
7.600000e-01  6.233604029229872e-03 
7.650000e-01  3.563511444822615e-02 
7.700000e-01  1.092620537161270e-01 
7.750000e-01  2.218057253039304e-01 
7.800000e-01  3.623657637899216e-01 
7.850000e-01  5.168534157612714e-01 
7.900000e-01  6.696402164368261e-01 
7.950000e-01  8.052849107313172e-01 
8.000000e-01  9.102472569572377e-01 
8.050000e-01  9.745379936001440e-01 
8.100000e-01  9.949898411336286e-01 
8.150000e-01  9.952798398326584e-01 
8.200000e-01  9.952362195411358e-01 
8.250000e-01  9.952432014877908e-01 
8.300000e-01  9.952410873168650e-01 
8.350000e-01  9.952477791114530e-01 
8.400000e-01  9.952055626089975e-01 
8.450000e-01  9.954661481548789e-01 
8.500000e-01  9.812984007010335e-01 
8.550000e-01  9.244766429163637e-01 
8.600000e-01  8.257685729235115e-01 
8.650000e-01  6.943724427824035e-01 
8.700000e-01  5.433502776369649e-01 
8.750000e-01  3.879480437455768e-01 
8.800000e-01  2.438939915419104e-01 
8.850000e-01  1.256639022790036e-01 
8.900000e-01  4.481975538422785e-02 
8.950000e-01  7.964332504204778e-03 
9.000000e-01  4.450965627794319e-03 
9.050000e-01  4.807702703318311e-03 
9.100000e-01  4.749829479446670e-03 
9.150000e-01  4.755113553625351e-03 
9.200000e-01  4.778371219922676e-03 
9.250000e-01  4.624241444884730e-03 
9.300000e-01  5.771221915429747e-03 
9.350000e-01  3.238167443014416e-02 
9.400000e-01  1.031976549603760e-01 
9.450000e-01  2.134846372602487e-01 
9.500000e-01  3.526091735561018e-01 
9.550000e-01  5.066421151045220e-01 
9.600000e-01  6.600048431169222e-01 
9.650000e-01  7.971925077991463e-01 
9.700000e-01  9.044920844912138e-01 
9.750000e-01  9.716287816445148e-01 
9.800000e-01  9.947046253728277e-01 
9.850000e-01  9.953187492663257e-01 
9.900000e-01  9.952302917368792e-01 
9.950000e-01  9.952443254715754e-01 
1.000000e+00  9.952418055897166e-01 
