TITLE ="t=0.001591" 
VARIABLES = "x"                 "phi" 
ZONE I=201, ZONETYPE=Ordered, DATAPACKING=POINT
0.000000e+00  1.002293284303718e+00 
5.000000e-03  7.775418097826591e-01 
1.000000e-02  5.600576647939890e-01 
1.500000e-02  4.292869732994241e-01 
2.000000e-02  3.679100390266500e-01 
2.500000e-02  3.606967124704304e-01 
3.000000e-02  3.894218092220775e-01 
3.500000e-02  4.328460266435496e-01 
4.000000e-02  4.737650135950268e-01 
4.500000e-02  5.022029178072561e-01 
5.000000e-02  5.153802244356687e-01 
5.500000e-02  5.159952474955984e-01 
6.000000e-02  5.095929403773710e-01 
6.500000e-02  5.019395653718471e-01 
7.000000e-02  4.971674435502572e-01 
7.500000e-02  4.969928326569509e-01 
8.000000e-02  5.008994332734086e-01 
8.500000e-02  5.069427861273151e-01 
9.000000e-02  5.127630054345488e-01 
9.500000e-02  5.164563939993310e-01 
1.000000e-01  5.170916936052421e-01 
1.050000e-01  5.148077912416488e-01 
1.100000e-01  5.105588826143882e-01 
1.150000e-01  5.056575490527787e-01 
1.200000e-01  5.012945547375747e-01 
1.250000e-01  4.981887648938829e-01 
1.300000e-01  4.964563538918204e-01 
1.350000e-01  4.957075715686742e-01 
1.400000e-01  4.953059165382810e-01 
1.450000e-01  4.946794115744179e-01 
1.500000e-01  4.935682449232319e-01 
1.550000e-01  4.921259059229543e-01 
1.600000e-01  4.908487448129493e-01 
1.650000e-01  4.903709912009161e-01 
1.700000e-01  4.912075656907136e-01 
1.750000e-01  4.935409571974068e-01 
1.800000e-01  4.971278158684349e-01 
1.850000e-01  5.013547879378529e-01 
1.900000e-01  5.054193222095588e-01 
1.950000e-01  5.085692989556579e-01 
2.000000e-01  5.103191738580262e-01 
2.050000e-01  5.105734303649996e-01 
2.100000e-01  5.096236533268875e-01 
2.150000e-01  5.080295110521758e-01 
2.200000e-01  5.064306230935272e-01 
2.250000e-01  5.053540099645704e-01 
2.300000e-01  5.050767645589915e-01 
2.350000e-01  5.055800580529571e-01 
2.400000e-01  5.065982736610833e-01 
2.450000e-01  5.077370747854054e-01 
2.500000e-01  5.086154841947573e-01 
2.550000e-01  5.089839515896507e-01 
2.600000e-01  5.087822088192585e-01 
2.650000e-01  5.081226760670924e-01 
2.700000e-01  5.072102380769520e-01 
2.750000e-01  5.062299926354714e-01 
2.800000e-01  5.052451718461575e-01 
2.850000e-01  5.041447286788835e-01 
2.900000e-01  5.026645048081525e-01 
2.950000e-01  5.004815567316309e-01 
3.000000e-01  4.973551747494559e-01 
3.050000e-01  4.932687181279701e-01 
3.100000e-01  4.885207469711992e-01 
3.150000e-01  4.837253751633456e-01 
3.200000e-01  4.797080778670992e-01 
3.250000e-01  4.773167729994029e-01 
3.300000e-01  4.771981099815165e-01 
3.350000e-01  4.796050024313236e-01 
3.400000e-01  4.842967507190169e-01 
3.450000e-01  4.905675613517796e-01 
3.500000e-01  4.974006062954865e-01 
3.550000e-01  5.037060271371642e-01 
3.600000e-01  5.085755670861419e-01 
3.650000e-01  5.114820118125147e-01 
3.700000e-01  5.123694160187975e-01 
3.750000e-01  5.116142439661852e-01 
3.800000e-01  5.098768084526937e-01 
3.850000e-01  5.078937852679940e-01 
3.900000e-01  5.062762268522573e-01 
3.950000e-01  5.053701846488953e-01 
4.000000e-01  5.052127593497882e-01 
4.050000e-01  5.055842116896357e-01 
4.100000e-01  5.061274965852278e-01 
4.150000e-01  5.064892344229276e-01 
4.200000e-01  5.064351404733853e-01 
4.250000e-01  5.059070792185408e-01 
4.300000e-01  5.050121745301275e-01 
4.350000e-01  5.039582700116035e-01 
4.400000e-01  5.029664194932538e-01 
4.450000e-01  5.021950219467682e-01 
4.500000e-01  5.017013530845236e-01 
4.550000e-01  5.014487815610360e-01 
4.600000e-01  5.013489902131282e-01 
4.650000e-01  5.013154229025818e-01 
4.700000e-01  5.013018274537810e-01 
4.750000e-01  5.013086767318738e-01 
4.800000e-01  5.013563399719746e-01 
4.850000e-01  5.014400872278620e-01 
4.900000e-01  5.014912167637008e-01 
4.950000e-01  5.013666529935469e-01 
5.000000e-01  5.008769812156338e-01 
5.050000e-01  4.998454445314172e-01 
5.100000e-01  4.981757012423580e-01 
5.150000e-01  4.959008529138974e-01 
5.200000e-01  4.931929917529352e-01 
5.250000e-01  4.903284395645605e-01 
5.300000e-01  4.876218863114468e-01 
5.350000e-01  4.853546929811917e-01 
5.400000e-01  4.837233377139575e-01 
5.450000e-01  4.828232366042598e-01 
5.500000e-01  4.826661892304762e-01 
5.550000e-01  4.832146492764504e-01 
5.600000e-01  4.844101306745988e-01 
5.650000e-01  4.861791020342545e-01 
5.700000e-01  4.884146027429055e-01 
5.750000e-01  4.909480069554125e-01 
5.800000e-01  4.935345115610403e-01 
5.850000e-01  4.958728876446565e-01 
5.900000e-01  4.976654247525650e-01 
5.950000e-01  4.987040254835948e-01 
6.000000e-01  4.989521308387465e-01 
6.050000e-01  4.985874294203006e-01 
6.100000e-01  4.979802583025821e-01 
6.150000e-01  4.976041753083889e-01 
6.200000e-01  4.979003164889624e-01 
6.250000e-01  4.991361220152103e-01 
6.300000e-01  5.013043263425340e-01 
6.350000e-01  5.040973746120112e-01 
6.400000e-01  5.069691806515213e-01 
6.450000e-01  5.092684051319309e-01 
6.500000e-01  5.104046528930396e-01 
6.550000e-01  5.099986817099222e-01 
6.600000e-01  5.079731024888798e-01 
6.650000e-01  5.045592137370377e-01 
6.700000e-01  5.002221450368041e-01 
6.750000e-01  4.955315612062660e-01 
6.800000e-01  4.910205652014100e-01 
6.850000e-01  4.870762910702941e-01 
6.900000e-01  4.838920685225382e-01 
6.950000e-01  4.814878704046057e-01 
7.000000e-01  4.797812512559766e-01 
7.050000e-01  4.786740201060807e-01 
7.100000e-01  4.781167463965629e-01 
7.150000e-01  4.781250062129567e-01 
7.200000e-01  4.787433481574741e-01 
7.250000e-01  4.799764441108809e-01 
7.300000e-01  4.817221920239051e-01 
7.350000e-01  4.837421816296408e-01 
7.400000e-01  4.856903409324237e-01 
7.450000e-01  4.871964846911357e-01 
7.500000e-01  4.879776659014704e-01 
7.550000e-01  4.879364965772321e-01 
7.600000e-01  4.872077802355643e-01 
7.650000e-01  4.861323783987999e-01 
7.700000e-01  4.851635833702281e-01 
7.750000e-01  4.847362833917352e-01 
7.800000e-01  4.851433085921590e-01 
7.850000e-01  4.864611737930544e-01 
7.900000e-01  4.885497869352804e-01 
7.950000e-01  4.911241302026805e-01 
8.000000e-01  4.938702116404537e-01 
8.050000e-01  4.965619907008127e-01 
8.100000e-01  4.991359243252775e-01 
8.150000e-01  5.016951374809947e-01 
8.200000e-01  5.044406037612055e-01 
8.250000e-01  5.075533834680432e-01 
8.300000e-01  5.110707048636669e-01 
8.350000e-01  5.148028655532103e-01 
8.400000e-01  5.183257776204031e-01 
8.450000e-01  5.210592064780418e-01 
8.500000e-01  5.224114737936977e-01 
8.550000e-01  5.219475170200882e-01 
8.600000e-01  5.195272030460631e-01 
8.650000e-01  5.153687707703132e-01 
8.700000e-01  5.100160496996123e-01 
8.750000e-01  5.042194588818982e-01 
8.800000e-01  4.987684101602554e-01 
8.850000e-01  4.943267318433364e-01 
8.900000e-01  4.913184850179135e-01 
8.950000e-01  4.898912572508171e-01 
9.000000e-01  4.899557144730836e-01 
9.050000e-01  4.912747405710849e-01 
9.100000e-01  4.935623510007262e-01 
9.150000e-01  4.965558604640374e-01 
9.200000e-01  5.000417207699590e-01 
9.250000e-01  5.038378730108912e-01 
9.300000e-01  5.077537002251346e-01 
9.350000e-01  5.115557009702035e-01 
9.400000e-01  5.149611669927329e-01 
9.450000e-01  5.176673151725243e-01 
9.500000e-01  5.194066994976936e-01 
9.550000e-01  5.200084381854514e-01 
9.600000e-01  5.194428967473235e-01 
9.650000e-01  5.178346452497629e-01 
9.700000e-01  5.154407429061365e-01 
9.750000e-01  5.126031759279970e-01 
9.800000e-01  5.096910968847066e-01 
9.850000e-01  5.070486231118539e-01 
9.900000e-01  5.049585337357885e-01 
9.950000e-01  5.036243508286496e-01 
1.000000e+00  5.031664375315800e-01 
