TITLE ="t=0.001327" 
VARIABLES = "x"                 "phi" 
ZONE I=201, ZONETYPE=Ordered, DATAPACKING=POINT
0.000000e+00  9.969362193452593e-01 
5.000000e-03  7.636104114603437e-01 
1.000000e-02  5.387798632425893e-01 
1.500000e-02  4.131502659920031e-01 
2.000000e-02  3.645089838267833e-01 
2.500000e-02  3.702672687333480e-01 
3.000000e-02  4.072357345830442e-01 
3.500000e-02  4.523555118296371e-01 
4.000000e-02  4.894615994901517e-01 
4.500000e-02  5.111885373670586e-01 
5.000000e-02  5.174797649266448e-01 
5.500000e-02  5.129346625547562e-01 
6.000000e-02  5.038972241539784e-01 
6.500000e-02  4.960067987801186e-01 
7.000000e-02  4.927024550710531e-01 
7.500000e-02  4.947978721827663e-01 
8.000000e-02  5.009417501742442e-01 
8.500000e-02  5.085968766338775e-01 
9.000000e-02  5.151246704375144e-01 
9.500000e-02  5.186413964671310e-01 
1.000000e-01  5.184590843273297e-01 
1.050000e-01  5.150778714401657e-01 
1.100000e-01  5.098221577031292e-01 
1.150000e-01  5.042914503155599e-01 
1.200000e-01  4.998186956654554e-01 
1.250000e-01  4.970980359712956e-01 
1.300000e-01  4.960746206574549e-01 
1.350000e-01  4.961008187753916e-01 
1.400000e-01  4.962792491672961e-01 
1.450000e-01  4.958579748893654e-01 
1.500000e-01  4.945345344392321e-01 
1.550000e-01  4.925657054900117e-01 
1.600000e-01  4.906543462550149e-01 
1.650000e-01  4.896662126149473e-01 
1.700000e-01  4.902887098197405e-01 
1.750000e-01  4.927594026248541e-01 
1.800000e-01  4.967606540543563e-01 
1.850000e-01  5.015117204176458e-01 
1.900000e-01  5.060170591770927e-01 
1.950000e-01  5.093769843425114e-01 
2.000000e-01  5.110517268472915e-01 
2.050000e-01  5.109944257590410e-01 
2.100000e-01  5.096202241402072e-01 
2.150000e-01  5.076365612936121e-01 
2.200000e-01  5.058027994454514e-01 
2.250000e-01  5.047022886208359e-01 
2.300000e-01  5.045956886063236e-01 
2.350000e-01  5.053900308692376e-01 
2.400000e-01  5.067178511550900e-01 
2.450000e-01  5.080882028175246e-01 
2.500000e-01  5.090549146533916e-01 
2.550000e-01  5.093490106709542e-01 
2.600000e-01  5.089383343343005e-01 
2.650000e-01  5.080018429301263e-01 
2.700000e-01  5.068319035488951e-01 
2.750000e-01  5.056991073835254e-01 
2.800000e-01  5.047257959483301e-01 
2.850000e-01  5.038134951802306e-01 
2.900000e-01  5.026549282758197e-01 
2.950000e-01  5.008356423117066e-01 
3.000000e-01  4.979998009674103e-01 
3.050000e-01  4.940286989266981e-01 
3.100000e-01  4.891688600970515e-01 
3.150000e-01  4.840556784633896e-01 
3.200000e-01  4.796081596674595e-01 
3.250000e-01  4.768122786309605e-01 
3.300000e-01  4.764510048298540e-01 
3.350000e-01  4.788633288488061e-01 
3.400000e-01  4.838120585127227e-01 
3.450000e-01  4.905091599814282e-01 
3.500000e-01  4.977976389312544e-01 
3.550000e-01  5.044381789655227e-01 
3.600000e-01  5.094151732686976e-01 
3.650000e-01  5.121716099298957e-01 
3.700000e-01  5.127065517130829e-01 
3.750000e-01  5.115140017190964e-01 
3.800000e-01  5.093920753462241e-01 
3.850000e-01  5.071893166672886e-01 
3.900000e-01  5.055686459266108e-01 
3.950000e-01  5.048563622189343e-01 
4.000000e-01  5.050107083489528e-01 
4.050000e-01  5.057042250057551e-01 
4.100000e-01  5.064799073143541e-01 
4.150000e-01  5.069230986631118e-01 
4.200000e-01  5.067930490773341e-01 
4.250000e-01  5.060774497962494e-01 
4.300000e-01  5.049623256670376e-01 
4.350000e-01  5.037384303522475e-01 
4.400000e-01  5.026845394527265e-01 
4.450000e-01  5.019720500944308e-01 
4.500000e-01  5.016234823688003e-01 
4.550000e-01  5.015345475421678e-01 
4.600000e-01  5.015439845126364e-01 
4.650000e-01  5.015170183709743e-01 
4.700000e-01  5.014042657380544e-01 
4.750000e-01  5.012499736521923e-01 
4.800000e-01  5.011468570192793e-01 
4.850000e-01  5.011596968774569e-01 
4.900000e-01  5.012553357921482e-01 
4.950000e-01  5.012754405364891e-01 
5.000000e-01  5.009702550553226e-01 
5.050000e-01  5.000841058652663e-01 
5.100000e-01  4.984588909081413e-01 
5.150000e-01  4.961116476758372e-01 
5.200000e-01  4.932518057547123e-01 
5.250000e-01  4.902291182918880e-01 
5.300000e-01  4.874331684655269e-01 
5.350000e-01  4.851859684923215e-01 
5.400000e-01  4.836708238211465e-01 
5.450000e-01  4.829224675384040e-01 
5.500000e-01  4.828740835862806e-01 
5.550000e-01  4.834303819280480e-01 
5.600000e-01  4.845252561314455e-01 
5.650000e-01  4.861329686453146e-01 
5.700000e-01  4.882281266493849e-01 
5.750000e-01  4.907188524908236e-01 
5.800000e-01  4.933948666916325e-01 
5.850000e-01  4.959286321987879e-01 
5.900000e-01  4.979442539912248e-01 
5.950000e-01  4.991360982580215e-01 
6.000000e-01  4.993922530331137e-01 
6.050000e-01  4.988696310862270e-01 
6.100000e-01  4.979821038645638e-01 
6.150000e-01  4.972948617129946e-01 
6.200000e-01  4.973541998658658e-01 
6.250000e-01  4.985076666109213e-01 
6.300000e-01  5.007751436219917e-01 
6.350000e-01  5.038153170884463e-01 
6.400000e-01  5.070006633008028e-01 
6.450000e-01  5.095790397468032e-01 
6.500000e-01  5.108730741516023e-01 
6.550000e-01  5.104578642111331e-01 
6.600000e-01  5.082654584656119e-01 
6.650000e-01  5.045880187269804e-01 
6.700000e-01  4.999829788746000e-01 
6.750000e-01  4.951132220300339e-01 
6.800000e-01  4.905741772698549e-01 
6.850000e-01  4.867618865203449e-01 
6.900000e-01  4.838205628996199e-01 
6.950000e-01  4.816795667783558e-01 
7.000000e-01  4.801575126762092e-01 
7.050000e-01  4.790870736459282e-01 
7.100000e-01  4.784076151708418e-01 
7.150000e-01  4.781873786410778e-01 
7.200000e-01  4.785674434864023e-01 
7.250000e-01  4.796540575074303e-01 
7.300000e-01  4.814097542771895e-01 
7.350000e-01  4.835963696279539e-01 
7.400000e-01  4.858027147646024e-01 
7.450000e-01  4.875543474058546e-01 
7.500000e-01  4.884674100247549e-01 
7.550000e-01  4.883879336924340e-01 
7.600000e-01  4.874611149846000e-01 
7.650000e-01  4.861007133301514e-01 
7.700000e-01  4.848664619733103e-01 
7.750000e-01  4.842920872015555e-01 
7.800000e-01  4.847246964342623e-01 
7.850000e-01  4.862314085509134e-01 
7.900000e-01  4.886037450447777e-01 
7.950000e-01  4.914546323864837e-01 
8.000000e-01  4.943702692804463e-01 
8.050000e-01  4.970609487070104e-01 
8.100000e-01  4.994566713612362e-01 
8.150000e-01  5.017135130627309e-01 
8.200000e-01  5.041279734154922e-01 
8.250000e-01  5.069886318781170e-01 
8.300000e-01  5.104170947381577e-01 
8.350000e-01  5.142560633864518e-01 
8.400000e-01  5.180490260448255e-01 
8.450000e-01  5.211270811073110e-01 
8.500000e-01  5.227824412802177e-01 
8.550000e-01  5.224768782220185e-01 
8.600000e-01  5.200179300506477e-01 
8.650000e-01  5.156429847854024e-01 
8.700000e-01  5.099805564267625e-01 
8.750000e-01  5.038995920182081e-01 
8.800000e-01  4.982961171283219e-01 
8.850000e-01  4.938871408866141e-01 
8.900000e-01  4.910765149933365e-01 
8.950000e-01  4.899284294288745e-01 
9.000000e-01  4.902429462598218e-01 
9.050000e-01  4.916911476855766e-01 
9.100000e-01  4.939500322981218e-01 
9.150000e-01  4.967855304301563e-01 
9.200000e-01  5.000607447851195e-01 
9.250000e-01  5.036818641506685e-01 
9.300000e-01  5.075202898572395e-01 
9.350000e-01  5.113558210542576e-01 
9.400000e-01  5.148714541065266e-01 
9.450000e-01  5.177039574404370e-01 
9.500000e-01  5.195289168336791e-01 
9.550000e-01  5.201455137848584e-01 
9.600000e-01  5.195292299441628e-01 
9.650000e-01  5.178364045214847e-01 
9.700000e-01  5.153643857301181e-01 
9.750000e-01  5.124858447313555e-01 
9.800000e-01  5.095805260838833e-01 
9.850000e-01  5.069826815426371e-01 
9.900000e-01  5.049521223820238e-01 
9.950000e-01  5.036666522378365e-01 
1.000000e+00  5.032273349932905e-01 
