TITLE ="t=257.103639" 
VARIABLES = "x"                 "phi" 
ZONE I=201, ZONETYPE=Ordered, DATAPACKING=POINT
0.000000e+00  1.016564559626651e+00 
5.000000e-03  9.243646555958609e-01 
1.000000e-02  8.056557664239430e-01 
1.500000e-02  6.583291170226404e-01 
2.000000e-02  4.970817700211138e-01 
2.500000e-02  3.382055672220788e-01 
3.000000e-02  1.977501885059740e-01 
3.500000e-02  8.973104637115825e-02 
4.000000e-02  2.440943546330883e-02 
4.500000e-02  4.739674263292096e-03 
5.000000e-02  4.698543446214333e-03 
5.500000e-02  4.629537578824996e-03 
6.000000e-02  5.423128495951993e-03 
6.500000e-02  2.977845444106991e-02 
7.000000e-02  9.833926320291056e-02 
7.500000e-02  2.068363135413904e-01 
8.000000e-02  3.448330478048164e-01 
8.500000e-02  4.985170377610267e-01 
9.000000e-02  6.523424144255948e-01 
9.500000e-02  7.907494519216736e-01 
1.000000e-01  8.998860754173281e-01 
1.050000e-01  9.692542493134215e-01 
1.100000e-01  9.944374206619372e-01 
1.150000e-01  9.953530854657890e-01 
1.200000e-01  9.952242244565391e-01 
1.250000e-01  9.952547696232130e-01 
1.300000e-01  9.951827668980274e-01 
1.350000e-01  9.955979985780882e-01 
1.400000e-01  9.846004360410430e-01 
1.450000e-01  9.321667515671651e-01 
1.500000e-01  8.372270389129179e-01 
1.550000e-01  7.084795492843584e-01 
1.600000e-01  5.586866891222582e-01 
1.650000e-01  4.029583465245637e-01 
1.700000e-01  2.570581575082964e-01 
1.750000e-01  1.356658041958641e-01 
1.800000e-01  5.070626503394742e-02 
1.850000e-01  9.438341244559043e-03 
1.900000e-01  4.468963911480392e-03 
1.950000e-01  4.430203293247964e-03 
2.000000e-01  1.175289896823101e-02 
2.050000e-01  5.814647055488933e-02 
2.100000e-01  1.477611127244401e-01 
2.150000e-01  2.726429461573728e-01 
2.200000e-01  4.204686693035307e-01 
2.250000e-01  5.763459193688183e-01 
2.300000e-01  7.244949514154876e-01 
2.350000e-01  8.499877033514098e-01 
2.400000e-01  9.404314171837850e-01 
2.450000e-01  9.877532484026386e-01 
2.500000e-01  9.956604802314090e-01 
2.550000e-01  9.951103704132598e-01 
2.600000e-01  9.956362609772907e-01 
2.650000e-01  9.855597076010596e-01 
2.700000e-01  9.345555532567184e-01 
2.750000e-01  8.408618159443093e-01 
2.800000e-01  7.130066175579317e-01 
2.850000e-01  5.636511263688422e-01 
2.900000e-01  4.078568131425763e-01 
2.950000e-01  2.613944542274041e-01 
3.000000e-01  1.390058313736386e-01 
3.050000e-01  5.272992310101930e-02 
3.100000e-01  1.002738669683320e-02 
3.150000e-01  4.373975660688356e-03 
3.200000e-01  4.822211918900057e-03 
3.250000e-01  4.743459766819962e-03 
3.300000e-01  4.783430580676050e-03 
3.350000e-01  4.603782235987008e-03 
3.400000e-01  5.960033730419947e-03 
3.450000e-01  3.377146620660520e-02 
3.500000e-01  1.058058822251419e-01 
3.550000e-01  2.170738114055380e-01 
3.600000e-01  3.568253957559399e-01 
3.650000e-01  5.110617081076423e-01 
3.700000e-01  6.641818093873790e-01 
3.750000e-01  8.007076169091510e-01 
3.800000e-01  9.070001470900403e-01 
3.850000e-01  9.729070409023456e-01 
3.900000e-01  9.948359800795215e-01 
3.950000e-01  9.953013406656991e-01 
4.000000e-01  9.952330259396537e-01 
4.050000e-01  9.952438083121260e-01 
4.100000e-01  9.952421407521667e-01 
4.150000e-01  9.952424154300410e-01 
4.200000e-01  9.952423854315127e-01 
4.250000e-01  9.952424112106316e-01 
4.300000e-01  9.952423758095889e-01 
4.350000e-01  9.952426858931345e-01 
4.400000e-01  9.952407906867001e-01 
4.450000e-01  9.952529944807061e-01 
4.500000e-01  9.951741151056016e-01 
4.550000e-01  9.956474363629302e-01 
4.600000e-01  9.877683615554117e-01 
4.650000e-01  9.404744071155793e-01 
4.700000e-01  8.500555470166401e-01 
4.750000e-01  7.245811331834925e-01 
4.800000e-01  5.764418573152176e-01 
4.850000e-01  4.205647086428946e-01 
4.900000e-01  2.727294168683603e-01 
4.950000e-01  1.478293883351384e-01 
5.000000e-01  5.818996651971906e-02 
5.050000e-01  1.176857458004051e-02 
5.100000e-01  4.352740220153809e-03 
5.150000e-01  4.825720832919108e-03 
5.200000e-01  4.746861321245761e-03 
5.250000e-01  4.759025183732974e-03 
5.300000e-01  4.757098506070392e-03 
5.350000e-01  4.757376311601449e-03 
5.400000e-01  4.757306229529436e-03 
5.450000e-01  4.757313742735508e-03 
5.500000e-01  4.757160261901791e-03 
5.550000e-01  4.757985108690386e-03 
5.600000e-01  4.752558817640287e-03 
5.650000e-01  4.787308805015539e-03 
5.700000e-01  4.571143659132842e-03 
5.750000e-01  6.294770848441328e-03 
5.800000e-01  3.603106922000032e-02 
5.850000e-01  1.099908106461030e-01 
5.900000e-01  2.228003351667097e-01 
5.950000e-01  3.635279788116308e-01 
6.000000e-01  5.180663493820815e-01 
6.050000e-01  6.707814051306472e-01 
6.100000e-01  8.062397926862368e-01 
6.150000e-01  9.109221292555805e-01 
6.200000e-01  9.748736215045102e-01 
6.250000e-01  9.950197168880961e-01 
6.300000e-01  9.952756732689477e-01 
6.350000e-01  9.952370731748093e-01 
6.400000e-01  9.952434870397232e-01 
6.450000e-01  9.952407647570291e-01 
6.500000e-01  9.952527368509511e-01 
6.550000e-01  9.951767079878598e-01 
6.600000e-01  9.956341401878350e-01 
6.650000e-01  9.895557876299874e-01 
6.700000e-01  9.458887738030870e-01 
6.750000e-01  8.587341720388270e-01 
6.800000e-01  7.356846099945020e-01 
6.850000e-01  5.888545047443547e-01 
6.900000e-01  4.330262301128212e-01 
6.950000e-01  2.839742272321080e-01 
7.000000e-01  1.567263918434044e-01 
7.050000e-01  6.387496404493603e-02 
7.100000e-01  1.383184418613900e-02 
7.150000e-01  4.367179113851844e-03 
7.200000e-01  4.823313802604709e-03 
7.250000e-01  4.747399498122300e-03 
7.300000e-01  4.759090736844747e-03 
7.350000e-01  4.757054807579836e-03 
7.400000e-01  4.758203326931055e-03 
7.450000e-01  4.752216137553301e-03 
7.500000e-01  4.790031106841347e-03 
7.550000e-01  4.555186081151636e-03 
7.600000e-01  6.471545104578734e-03 
7.650000e-01  3.713509894581522e-02 
7.700000e-01  1.120112402689408e-01 
7.750000e-01  2.255506711205798e-01 
7.800000e-01  3.667361182746730e-01 
7.850000e-01  5.214093993321058e-01 
7.900000e-01  6.739217318114303e-01 
7.950000e-01  8.088621954265730e-01 
8.000000e-01  9.127695660269884e-01 
8.050000e-01  9.757850673117053e-01 
8.100000e-01  9.950973353589805e-01 
8.150000e-01  9.952641687299473e-01 
8.200000e-01  9.952386468909769e-01 
8.250000e-01  9.952428394222071e-01 
8.300000e-01  9.952408581045806e-01 
8.350000e-01  9.952495644668268e-01 
8.400000e-01  9.951939286482491e-01 
8.450000e-01  9.955338544858401e-01 
8.500000e-01  9.827724624588523e-01 
8.550000e-01  9.278236182706193e-01 
8.600000e-01  8.307149258729936e-01 
8.650000e-01  7.004347759014814e-01 
8.700000e-01  5.499190389956320e-01 
8.750000e-01  3.943575924721073e-01 
8.800000e-01  2.494959668463133e-01 
8.850000e-01  1.298991658971792e-01 
8.900000e-01  4.728640409211217e-02 
8.950000e-01  8.548454714380635e-03 
9.000000e-01  4.422484541054093e-03 
9.050000e-01  4.812796134695069e-03 
9.100000e-01  4.749028709900233e-03 
9.150000e-01  4.755857086266823e-03 
9.200000e-01  4.774827155647940e-03 
9.250000e-01  4.646329235318212e-03 
9.300000e-01  5.577545960560306e-03 
9.350000e-01  3.084857909123325e-02 
9.400000e-01  1.002879870071234e-01 
9.450000e-01  2.094616983240651e-01 
9.500000e-01  3.478691560243869e-01 
9.550000e-01  5.016611219918823e-01 
9.600000e-01  6.552854668737260e-01 
9.650000e-01  7.932085135755930e-01 
9.700000e-01  9.016350851400259e-01 
9.750000e-01  9.701543305923424e-01 
9.800000e-01  9.945411306095747e-01 
9.850000e-01  9.953393665671260e-01 
9.900000e-01  9.952270713551170e-01 
9.950000e-01  9.952449453199520e-01 
1.000000e+00  9.952417373814102e-01 
