TITLE ="t=0.026369" 
VARIABLES = "x"                 "phi" 
ZONE I=201, ZONETYPE=Ordered, DATAPACKING=POINT
0.000000e+00  1.016454536448324e+00 
5.000000e-03  9.194846616471771e-01 
1.000000e-02  8.245898602391847e-01 
1.500000e-02  7.242354982896817e-01 
2.000000e-02  6.201206893069059e-01 
2.500000e-02  5.178282655596232e-01 
3.000000e-02  4.247796840983809e-01 
3.500000e-02  3.480684093895329e-01 
4.000000e-02  2.929364844047558e-01 
4.500000e-02  2.619606923111954e-01 
5.000000e-02  2.549304138341205e-01 
5.500000e-02  2.692845963282865e-01 
6.000000e-02  3.008211187918783e-01 
6.500000e-02  3.444000484808670e-01 
7.000000e-02  3.945351196310440e-01 
7.500000e-02  4.458946624314191e-01 
8.000000e-02  4.937395397383253e-01 
8.500000e-02  5.342860767019124e-01 
9.000000e-02  5.649571395653065e-01 
9.500000e-02  5.844871660736273e-01 
1.000000e-01  5.928704324101045e-01 
1.050000e-01  5.911734386492091e-01 
1.100000e-01  5.812566944710563e-01 
1.150000e-01  5.654583080547601e-01 
1.200000e-01  5.462836003281454e-01 
1.250000e-01  5.261313810893674e-01 
1.300000e-01  5.070762360138611e-01 
1.350000e-01  4.907183931898931e-01 
1.400000e-01  4.781061441443061e-01 
1.450000e-01  4.697286122033764e-01 
1.500000e-01  4.655691765526169e-01 
1.550000e-01  4.652037144388733e-01 
1.600000e-01  4.679245766189793e-01 
1.650000e-01  4.728713420876782e-01 
1.700000e-01  4.791522404652458e-01 
1.750000e-01  4.859444837377178e-01 
1.800000e-01  4.925665293336231e-01 
1.850000e-01  4.985198056419357e-01 
1.900000e-01  5.035012852698552e-01 
1.950000e-01  5.073912634139537e-01 
2.000000e-01  5.102226433557894e-01 
2.050000e-01  5.121388996928010e-01 
2.100000e-01  5.133477630045300e-01 
2.150000e-01  5.140767515761059e-01 
2.200000e-01  5.145352464621232e-01 
2.250000e-01  5.148861566386309e-01 
2.300000e-01  5.152286007436959e-01 
2.350000e-01  5.155916200848508e-01 
2.400000e-01  5.159378363718129e-01 
2.450000e-01  5.161752104875627e-01 
2.500000e-01  5.161746267191268e-01 
2.550000e-01  5.157908688710801e-01 
2.600000e-01  5.148846060658403e-01 
2.650000e-01  5.133432050818399e-01 
2.700000e-01  5.110984842787849e-01 
2.750000e-01  5.081398901928879e-01 
2.800000e-01  5.045219956676076e-01 
2.850000e-01  5.003656805838530e-01 
2.900000e-01  4.958528556018646e-01 
2.950000e-01  4.912151105661379e-01 
3.000000e-01  4.867171844270171e-01 
3.050000e-01  4.826366225456089e-01 
3.100000e-01  4.792413631878771e-01 
3.150000e-01  4.767672328737314e-01 
3.200000e-01  4.753973957132173e-01 
3.250000e-01  4.752456777467342e-01 
3.300000e-01  4.763453764247854e-01 
3.350000e-01  4.786446902546930e-01 
3.400000e-01  4.820093044205829e-01 
3.450000e-01  4.862319995533429e-01 
3.500000e-01  4.910484783026279e-01 
3.550000e-01  4.961579988626217e-01 
3.600000e-01  5.012469347077411e-01 
3.650000e-01  5.060131020686216e-01 
3.700000e-01  5.101886459176894e-01 
3.750000e-01  5.135594573263418e-01 
3.800000e-01  5.159794848744360e-01 
3.850000e-01  5.173788481860592e-01 
3.900000e-01  5.177652927688771e-01 
3.950000e-01  5.172191667223203e-01 
4.000000e-01  5.158826822877394e-01 
4.050000e-01  5.139446940686775e-01 
4.100000e-01  5.116225453374943e-01 
4.150000e-01  5.091426877153644e-01 
4.200000e-01  5.067217687065164e-01 
4.250000e-01  5.045497220548913e-01 
4.300000e-01  5.027761157165195e-01 
4.350000e-01  5.015006481049863e-01 
4.400000e-01  5.007682762319874e-01 
4.450000e-01  5.005690499217691e-01 
4.500000e-01  5.008423496812342e-01 
4.550000e-01  5.014849087647127e-01 
4.600000e-01  5.023617593770739e-01 
4.650000e-01  5.033190865738285e-01 
4.700000e-01  5.041979017750038e-01 
4.750000e-01  5.048474563914380e-01 
4.800000e-01  5.051373970654669e-01 
4.850000e-01  5.049678074875146e-01 
4.900000e-01  5.042764761069124e-01 
4.950000e-01  5.030429613761159e-01 
5.000000e-01  5.012892821554426e-01 
5.050000e-01  4.990773247916440e-01 
5.100000e-01  4.965033128363966e-01 
5.150000e-01  4.936899117327901e-01 
5.200000e-01  4.907767199032709e-01 
5.250000e-01  4.879100116044459e-01 
5.300000e-01  4.852326315217770e-01 
5.350000e-01  4.828748887970088e-01 
5.400000e-01  4.809471605984880e-01 
5.450000e-01  4.795347045562586e-01 
5.500000e-01  4.786949177448817e-01 
5.550000e-01  4.784569978958888e-01 
5.600000e-01  4.788236950387469e-01 
5.650000e-01  4.797746233042078e-01 
5.700000e-01  4.812704622919499e-01 
5.750000e-01  4.832573345135073e-01 
5.800000e-01  4.856707063159336e-01 
5.850000e-01  4.884383163224115e-01 
5.900000e-01  4.914818658737939e-01 
5.950000e-01  4.947174769070428e-01 
6.000000e-01  4.980551936675208e-01 
6.050000e-01  5.013980334354812e-01 
6.100000e-01  5.046412402541378e-01 
6.150000e-01  5.076724368586385e-01 
6.200000e-01  5.103732907609838e-01 
6.250000e-01  5.126231152166549e-01 
6.300000e-01  5.143045364982461e-01 
6.350000e-01  5.153110125056616e-01 
6.400000e-01  5.155556318021443e-01 
6.450000e-01  5.149803088511207e-01 
6.500000e-01  5.135642706041086e-01 
6.550000e-01  5.113306427506638e-01 
6.600000e-01  5.083500166457836e-01 
6.650000e-01  5.047401154935900e-01 
6.700000e-01  5.006610628200749e-01 
6.750000e-01  4.963062468191747e-01 
6.800000e-01  4.918893115455932e-01 
6.850000e-01  4.876283203659137e-01 
6.900000e-01  4.837285584008130e-01 
6.950000e-01  4.803657086930310e-01 
7.000000e-01  4.776712098387041e-01 
7.050000e-01  4.757214631583324e-01 
7.100000e-01  4.745322135292265e-01 
7.150000e-01  4.740589129860167e-01 
7.200000e-01  4.742032443760520e-01 
7.250000e-01  4.748253030426422e-01 
7.300000e-01  4.757602844668784e-01 
7.350000e-01  4.768379806574082e-01 
7.400000e-01  4.779030136186794e-01 
7.450000e-01  4.788335785890506e-01 
7.500000e-01  4.795565575034448e-01 
7.550000e-01  4.800571920205483e-01 
7.600000e-01  4.803820460056203e-01 
7.650000e-01  4.806346857248966e-01 
7.700000e-01  4.809642896039857e-01 
7.750000e-01  4.815481848698484e-01 
7.800000e-01  4.825700108003010e-01 
7.850000e-01  4.841957502927313e-01 
7.900000e-01  4.865501911743682e-01 
7.950000e-01  4.896964357626790e-01 
8.000000e-01  4.936208569166584e-01 
8.050000e-01  4.982254145108427e-01 
8.100000e-01  5.033285398800325e-01 
8.150000e-01  5.086749358915035e-01 
8.200000e-01  5.139537161904660e-01 
8.250000e-01  5.188234186775530e-01 
8.300000e-01  5.229416725813462e-01 
8.350000e-01  5.259967567033699e-01 
8.400000e-01  5.277380136471076e-01 
8.450000e-01  5.280021060986718e-01 
8.500000e-01  5.267324131526216e-01 
8.550000e-01  5.239894405515142e-01 
8.600000e-01  5.199509128993129e-01 
8.650000e-01  5.149011654041433e-01 
8.700000e-01  5.092104766588045e-01 
8.750000e-01  5.033059851779194e-01 
8.800000e-01  4.976367047601442e-01 
8.850000e-01  4.926357963536648e-01 
8.900000e-01  4.886835885919318e-01 
8.950000e-01  4.860748239322701e-01 
9.000000e-01  4.849932437674140e-01 
9.050000e-01  4.854959550678412e-01 
9.100000e-01  4.875091136289432e-01 
9.150000e-01  4.908354029430446e-01 
9.200000e-01  4.951726794376505e-01 
9.250000e-01  5.001420935691083e-01 
9.300000e-01  5.053230803847085e-01 
9.350000e-01  5.102919341120763e-01 
9.400000e-01  5.146603137229134e-01 
9.450000e-01  5.181100161084875e-01 
9.500000e-01  5.204207080035512e-01 
9.550000e-01  5.214879930320886e-01 
9.600000e-01  5.213301351212537e-01 
9.650000e-01  5.200828665035180e-01 
9.700000e-01  5.179828666566256e-01 
9.750000e-01  5.153415955248566e-01 
9.800000e-01  5.125120961678786e-01 
9.850000e-01  5.098520603824609e-01 
9.900000e-01  5.076868102975732e-01 
9.950000e-01  5.062758529634973e-01 
1.000000e+00  5.057863109539615e-01 
