TITLE ="t=0.000062" 
VARIABLES = "x"                 "phi" 
ZONE I=201, ZONETYPE=Ordered, DATAPACKING=POINT
0.000000e+00  7.251531123894461e-01 
5.000000e-03  5.211102287125625e-01 
1.000000e-02  4.414312391011183e-01 
1.500000e-02  4.715930041499660e-01 
2.000000e-02  5.080864796487207e-01 
2.500000e-02  5.194467611776308e-01 
3.000000e-02  5.118960424404906e-01 
3.500000e-02  5.040214375229866e-01 
4.000000e-02  5.054294350828146e-01 
4.500000e-02  5.126990334833647e-01 
5.000000e-02  5.159772895512547e-01 
5.500000e-02  5.074828661224319e-01 
6.000000e-02  4.885434081230848e-01 
6.500000e-02  4.704416860531558e-01 
7.000000e-02  4.663511950712773e-01 
7.500000e-02  4.804325831180304e-01 
8.000000e-02  5.046508425910010e-01 
8.500000e-02  5.260231914309978e-01 
9.000000e-02  5.361331732531934e-01 
9.500000e-02  5.344077083587147e-01 
1.000000e-01  5.250085214927547e-01 
1.050000e-01  5.127491057559169e-01 
1.100000e-01  5.012866481815935e-01 
1.150000e-01  4.928145371696531e-01 
1.200000e-01  4.881787762519662e-01 
1.250000e-01  4.875879862306891e-01 
1.300000e-01  4.913281792963525e-01 
1.350000e-01  4.989633456043639e-01 
1.400000e-01  5.075179889627127e-01 
1.450000e-01  5.117011442840511e-01 
1.500000e-01  5.075581865625503e-01 
1.550000e-01  4.962844446805238e-01 
1.600000e-01  4.838523843942504e-01 
1.650000e-01  4.766429475557805e-01 
1.700000e-01  4.774723015633490e-01 
1.750000e-01  4.851068754101574e-01 
1.800000e-01  4.962309711054488e-01 
1.850000e-01  5.073430369907447e-01 
1.900000e-01  5.156534853337147e-01 
1.950000e-01  5.193889184433970e-01 
2.000000e-01  5.179148845925021e-01 
2.050000e-01  5.119927340953009e-01 
2.100000e-01  5.041743271083863e-01 
2.150000e-01  4.983651369022826e-01 
2.200000e-01  4.976866888576171e-01 
2.250000e-01  5.019903022658229e-01 
2.300000e-01  5.077778724877398e-01 
2.350000e-01  5.110352349643654e-01 
2.400000e-01  5.102349236341263e-01 
2.450000e-01  5.069944861907310e-01 
2.500000e-01  5.046622099559546e-01 
2.550000e-01  5.061219845781686e-01 
2.600000e-01  5.113257435418035e-01 
2.650000e-01  5.159260116234241e-01 
2.700000e-01  5.138371672637568e-01 
2.750000e-01  5.035780035428350e-01 
2.800000e-01  4.920852330591498e-01 
2.850000e-01  4.896096900161739e-01 
2.900000e-01  4.989610726451681e-01 
2.950000e-01  5.109478773093326e-01 
3.000000e-01  5.127483278276873e-01 
3.050000e-01  5.011119958803403e-01 
3.100000e-01  4.856835995397027e-01 
3.150000e-01  4.784413612616160e-01 
3.200000e-01  4.810645975767884e-01 
3.250000e-01  4.842537134028864e-01 
3.300000e-01  4.793536015450038e-01 
3.350000e-01  4.690702705163953e-01 
3.400000e-01  4.655965997968178e-01 
3.450000e-01  4.781727988128857e-01 
3.500000e-01  5.028735787270223e-01 
3.550000e-01  5.247968218569201e-01 
3.600000e-01  5.305035850422954e-01 
3.650000e-01  5.192642863817599e-01 
3.700000e-01  5.030790319696925e-01 
3.750000e-01  4.956658930685326e-01 
3.800000e-01  5.006138894682580e-01 
3.850000e-01  5.095993399717017e-01 
3.900000e-01  5.120350719091455e-01 
3.950000e-01  5.060845987130107e-01 
4.000000e-01  4.995111707856139e-01 
4.050000e-01  5.000615491880106e-01 
4.100000e-01  5.069135645539540e-01 
4.150000e-01  5.127988025060561e-01 
4.200000e-01  5.129185328604868e-01 
4.250000e-01  5.090549937634724e-01 
4.300000e-01  5.050620325825282e-01 
4.350000e-01  5.016773379617994e-01 
4.400000e-01  4.979060311933898e-01 
4.450000e-01  4.953427058788475e-01 
4.500000e-01  4.974525975526051e-01 
4.550000e-01  5.040941290308179e-01 
4.600000e-01  5.095992065193754e-01 
4.650000e-01  5.084334940727542e-01 
4.700000e-01  5.018256529616018e-01 
4.750000e-01  4.966453922120678e-01 
4.800000e-01  4.973772962142093e-01 
4.850000e-01  5.009895848336666e-01 
4.900000e-01  5.012604610021002e-01 
4.950000e-01  4.972867135443462e-01 
5.000000e-01  4.951174499827646e-01 
5.050000e-01  4.997330016063000e-01 
5.100000e-01  5.073163216924227e-01 
5.150000e-01  5.083513177592610e-01 
5.200000e-01  4.985829214608996e-01 
5.250000e-01  4.843995335990759e-01 
5.300000e-01  4.759667407455259e-01 
5.350000e-01  4.768221067713302e-01 
5.400000e-01  4.822669964934466e-01 
5.450000e-01  4.866871054847448e-01 
5.500000e-01  4.890974426114628e-01 
5.550000e-01  4.908065212322797e-01 
5.600000e-01  4.909010480150429e-01 
5.650000e-01  4.872808241905378e-01 
5.700000e-01  4.815493255326712e-01 
5.750000e-01  4.796047547722263e-01 
5.800000e-01  4.855902591470996e-01 
5.850000e-01  4.966022767730199e-01 
5.900000e-01  5.053587663555235e-01 
5.950000e-01  5.077341510966371e-01 
6.000000e-01  5.056909763853384e-01 
6.050000e-01  5.025854374670712e-01 
6.100000e-01  4.983587640207292e-01 
6.150000e-01  4.918298640593550e-01 
6.200000e-01  4.862194795645453e-01 
6.250000e-01  4.881876530305450e-01 
6.300000e-01  4.995290578328357e-01 
6.350000e-01  5.124461035204771e-01 
6.400000e-01  5.165143761254652e-01 
6.450000e-01  5.102789758539996e-01 
6.500000e-01  5.031178199380345e-01 
6.550000e-01  5.042798378584259e-01 
6.600000e-01  5.119497869842409e-01 
6.650000e-01  5.153464767283681e-01 
6.700000e-01  5.071634489751905e-01 
6.750000e-01  4.916731261314224e-01 
6.800000e-01  4.796857337535741e-01 
6.850000e-01  4.772143496997352e-01 
6.900000e-01  4.809761497251493e-01 
6.950000e-01  4.844061652405793e-01 
7.000000e-01  4.852841120729126e-01 
7.050000e-01  4.857311348771308e-01 
7.100000e-01  4.863718223721845e-01 
7.150000e-01  4.839847705423698e-01 
7.200000e-01  4.764900684489246e-01 
7.250000e-01  4.683286429311660e-01 
7.300000e-01  4.677761868745246e-01 
7.350000e-01  4.779594694686435e-01 
7.400000e-01  4.922634938152454e-01 
7.450000e-01  5.003475070134759e-01 
7.500000e-01  4.981573506957571e-01 
7.550000e-01  4.905498040057460e-01 
7.600000e-01  4.844889098195865e-01 
7.650000e-01  4.820605889031173e-01 
7.700000e-01  4.811994193182733e-01 
7.750000e-01  4.808470322391583e-01 
7.800000e-01  4.823156119826211e-01 
7.850000e-01  4.860097874579961e-01 
7.900000e-01  4.900130802456662e-01 
7.950000e-01  4.930692957781368e-01 
8.000000e-01  4.964841046426471e-01 
8.050000e-01  5.011247998931985e-01 
8.100000e-01  5.044514518134178e-01 
8.150000e-01  5.034644798987896e-01 
8.200000e-01  5.000077593093699e-01 
8.250000e-01  4.999430597412670e-01 
8.300000e-01  5.060839852040289e-01 
8.350000e-01  5.143517207832007e-01 
8.400000e-01  5.187334613288114e-01 
8.450000e-01  5.186010078679567e-01 
8.500000e-01  5.188632270803033e-01 
8.550000e-01  5.230473656437478e-01 
8.600000e-01  5.281457709293663e-01 
8.650000e-01  5.272274484049246e-01 
8.700000e-01  5.166100783414418e-01 
8.750000e-01  5.000078701830047e-01 
8.800000e-01  4.858551976470796e-01 
8.850000e-01  4.806882528685972e-01 
8.900000e-01  4.846792916817946e-01 
8.950000e-01  4.928845149804175e-01 
9.000000e-01  4.999957794380271e-01 
9.050000e-01  5.033961488322938e-01 
9.100000e-01  5.026113197187383e-01 
9.150000e-01  4.982382289152402e-01 
9.200000e-01  4.928793433624220e-01 
9.250000e-01  4.915601071224927e-01 
9.300000e-01  4.982572411664203e-01 
9.350000e-01  5.111525932402615e-01 
9.400000e-01  5.230347357733462e-01 
9.450000e-01  5.276679694082159e-01 
9.500000e-01  5.249769193520102e-01 
9.550000e-01  5.192864407539362e-01 
9.600000e-01  5.140852483114574e-01 
9.650000e-01  5.104540398644190e-01 
9.700000e-01  5.094002759980458e-01 
9.750000e-01  5.121241107623047e-01 
9.800000e-01  5.166284002349942e-01 
9.850000e-01  5.169412069530653e-01 
9.900000e-01  5.090731955522184e-01 
9.950000e-01  4.973442964089108e-01 
1.000000e+00  4.916831698584017e-01 
