TITLE ="t=47.103639" 
VARIABLES = "x"                 "phi" 
ZONE I=201, ZONETYPE=Ordered, DATAPACKING=POINT
0.000000e+00  1.016710494623801e+00 
5.000000e-03  9.237002586217306e-01 
1.000000e-02  8.040900966159438e-01 
1.500000e-02  6.560911120734353e-01 
2.000000e-02  4.944705508656828e-01 
2.500000e-02  3.355584713602252e-01 
3.000000e-02  1.954066431638820e-01 
3.500000e-02  8.799550445100658e-02 
4.000000e-02  2.351153689862845e-02 
4.500000e-02  4.658347326840427e-03 
5.000000e-02  4.703762070111127e-03 
5.500000e-02  4.596035777516213e-03 
6.000000e-02  5.607940773132153e-03 
6.500000e-02  3.143333132672153e-02 
7.000000e-02  1.015476616639906e-01 
7.500000e-02  2.113142103899620e-01 
8.000000e-02  3.501391287568291e-01 
8.500000e-02  5.041158635545396e-01 
9.000000e-02  6.576655826072900e-01 
9.500000e-02  7.952585611111681e-01 
1.000000e-01  9.031334579064376e-01 
1.050000e-01  9.709440329391523e-01 
1.100000e-01  9.946333170595182e-01 
1.150000e-01  9.953291152511535e-01 
1.200000e-01  9.952296926845334e-01 
1.250000e-01  9.952441947313333e-01 
1.300000e-01  9.952471975945998e-01 
1.350000e-01  9.952101662891458e-01 
1.400000e-01  9.772156834469219e-01 
1.450000e-01  9.157104517956690e-01 
1.500000e-01  8.130587646898618e-01 
1.550000e-01  6.789628426772349e-01 
1.600000e-01  5.267890943548589e-01 
1.650000e-01  3.719110213739120e-01 
1.700000e-01  2.299997811646217e-01 
1.750000e-01  1.152939914688908e-01 
1.800000e-01  3.894711147446830e-02 
1.850000e-01  6.781428045053020e-03 
1.900000e-01  4.529715198069978e-03 
1.950000e-01  4.793674181673542e-03 
2.000000e-01  2.204763638809547e-02 
2.050000e-01  8.271516664584530e-02 
2.100000e-01  1.846658429539926e-01 
2.150000e-01  3.182851216299580e-01 
2.200000e-01  4.702600913871372e-01 
2.250000e-01  6.252391780299245e-01 
2.300000e-01  7.675401502041598e-01 
2.350000e-01  8.828811552383672e-01 
2.400000e-01  9.600346704894025e-01 
2.450000e-01  9.930322762273758e-01 
2.500000e-01  9.954895324687613e-01 
2.550000e-01  9.951757786984166e-01 
2.600000e-01  9.954175320894763e-01 
2.650000e-01  9.802209536482788e-01 
2.700000e-01  9.220938595456158e-01 
2.750000e-01  8.222784739048586e-01 
2.800000e-01  6.901164593000845e-01 
2.850000e-01  5.387563659090104e-01 
2.900000e-01  3.834816285278442e-01 
2.950000e-01  2.400066692052378e-01 
3.000000e-01  1.227432719291462e-01 
3.050000e-01  4.314186816097842e-02 
3.100000e-01  7.597027484613298e-03 
3.150000e-01  4.471930264568641e-03 
3.200000e-01  4.804684516932571e-03 
3.250000e-01  4.745779887793886e-03 
3.300000e-01  4.784318649093024e-03 
3.350000e-01  4.595325955111462e-03 
3.400000e-01  6.042857931054577e-03 
3.450000e-01  3.435361900620682e-02 
3.500000e-01  1.068906956816038e-01 
3.550000e-01  2.185621622381859e-01 
3.600000e-01  3.585704160067143e-01 
3.650000e-01  5.128879765817373e-01 
3.700000e-01  6.659049866739513e-01 
3.750000e-01  8.021547375463954e-01 
3.800000e-01  9.080291505660559e-01 
3.850000e-01  9.734269465105491e-01 
3.900000e-01  9.948867027241143e-01 
3.950000e-01  9.952944098708132e-01 
4.000000e-01  9.952341165990556e-01 
4.050000e-01  9.952436327866535e-01 
4.100000e-01  9.952421710424838e-01 
4.150000e-01  9.952424221634220e-01 
4.200000e-01  9.952424044466448e-01 
4.250000e-01  9.952424368962690e-01 
4.300000e-01  9.952424091338899e-01 
4.350000e-01  9.952427261116498e-01 
4.400000e-01  9.952408417521328e-01 
4.450000e-01  9.952530310082995e-01 
4.500000e-01  9.951743046355073e-01 
4.550000e-01  9.956468030899861e-01 
4.600000e-01  9.883555166789096e-01 
4.650000e-01  9.421752618400462e-01 
4.700000e-01  8.527519478173087e-01 
4.750000e-01  7.280117208534733e-01 
4.800000e-01  5.802617167602021e-01 
4.850000e-01  4.243859125955511e-01 
4.900000e-01  2.761638901591175e-01 
4.950000e-01  1.505317843570909e-01 
5.000000e-01  5.989823075317739e-02 
5.050000e-01  1.236324657353836e-02 
5.100000e-01  4.352866030587561e-03 
5.150000e-01  4.825800369857421e-03 
5.200000e-01  4.746958726400829e-03 
5.250000e-01  4.759126603551188e-03 
5.300000e-01  4.757206561509015e-03 
5.350000e-01  4.757490367848377e-03 
5.400000e-01  4.757427332402863e-03 
5.450000e-01  4.757435749124206e-03 
5.500000e-01  4.757322392998843e-03 
5.550000e-01  4.757936283134731e-03 
5.600000e-01  4.753904465945630e-03 
5.650000e-01  4.779701705228127e-03 
5.700000e-01  4.618024682995453e-03 
5.750000e-01  5.828481755989981e-03 
5.800000e-01  3.281290188132144e-02 
5.850000e-01  1.040097225422958e-01 
5.900000e-01  2.146037437378354e-01 
5.950000e-01  3.539250423337336e-01 
6.000000e-01  5.080225740394898e-01 
6.050000e-01  6.613106286540003e-01 
6.100000e-01  7.982925849784647e-01 
6.150000e-01  9.052784032122992e-01 
6.200000e-01  9.720313080723200e-01 
6.250000e-01  9.947470771092627e-01 
6.300000e-01  9.953133052645802e-01 
6.350000e-01  9.952312882041456e-01 
6.400000e-01  9.952445633923906e-01 
6.450000e-01  9.952410268717962e-01 
6.500000e-01  9.952515509137631e-01 
6.550000e-01  9.951860906819386e-01 
6.600000e-01  9.955831665676921e-01 
6.650000e-01  9.913192514640494e-01 
6.700000e-01  9.521843787999194e-01 
6.750000e-01  8.692011595690955e-01 
6.800000e-01  7.493195397667227e-01 
6.850000e-01  6.042914358479654e-01 
6.900000e-01  4.487002430518985e-01 
6.950000e-01  2.982947258487912e-01 
7.000000e-01  1.682525698467457e-01 
7.050000e-01  7.148274247482309e-02 
7.100000e-01  1.692877350743628e-02 
7.150000e-01  4.454091177202452e-03 
7.200000e-01  4.808057396826017e-03 
7.250000e-01  4.749950309107528e-03 
7.300000e-01  4.758889772825495e-03 
7.350000e-01  4.757287309101277e-03 
7.400000e-01  4.758229283925524e-03 
7.450000e-01  4.753038324460159e-03 
7.500000e-01  4.785666680506714e-03 
7.550000e-01  4.581990816508957e-03 
7.600000e-01  6.181197745996152e-03 
7.650000e-01  3.529041440371710e-02 
7.700000e-01  1.086262001637284e-01 
7.750000e-01  2.209371430166942e-01 
7.800000e-01  3.613502764352856e-01 
7.850000e-01  5.157931661068068e-01 
7.900000e-01  6.686422505741029e-01 
7.950000e-01  8.044493941550953e-01 
8.000000e-01  9.096561425707032e-01 
8.050000e-01  9.742431552050163e-01 
8.100000e-01  9.949631404232171e-01 
8.150000e-01  9.952836416910893e-01 
8.200000e-01  9.952356311190250e-01 
8.250000e-01  9.952432906308937e-01 
8.300000e-01  9.952411562115837e-01 
8.350000e-01  9.952472844070703e-01 
8.400000e-01  9.952088046897634e-01 
8.450000e-01  9.954469951703504e-01 
8.500000e-01  9.809282560375521e-01 
8.550000e-01  9.236541201484891e-01 
8.600000e-01  8.245617483230916e-01 
8.650000e-01  6.928993157086629e-01 
8.700000e-01  5.417589220757099e-01 
8.750000e-01  3.863996287329278e-01 
8.800000e-01  2.425450208157742e-01 
8.850000e-01  1.246488354223807e-01 
8.900000e-01  4.423455241542342e-02 
8.950000e-01  7.833512701564630e-03 
9.000000e-01  4.458186215596243e-03 
9.050000e-01  4.806426548230847e-03 
9.100000e-01  4.750032959901492e-03 
9.150000e-01  4.754950071114436e-03 
9.200000e-01  4.779144996072155e-03 
9.250000e-01  4.619460550837313e-03 
9.300000e-01  5.814835891652613e-03 
9.350000e-01  3.271133246131532e-02 
9.400000e-01  1.038188189394409e-01 
9.450000e-01  2.143408729995504e-01 
9.500000e-01  3.536160918927103e-01 
9.550000e-01  5.076985493671266e-01 
9.600000e-01  6.610041885360012e-01 
9.650000e-01  7.980344549690704e-01 
9.700000e-01  9.050939233605730e-01 
9.750000e-01  9.719369190269255e-01 
9.800000e-01  9.947371609142430e-01 
9.850000e-01  9.953145069258608e-01 
9.900000e-01  9.952309510335758e-01 
9.950000e-01  9.952441982181361e-01 
1.000000e+00  9.952418193421670e-01 
