TITLE ="t=1007.103639" 
VARIABLES = "x"                 "phi" 
ZONE I=201, ZONETYPE=Ordered, DATAPACKING=POINT
0.000000e+00  1.016564704828422e+00 
5.000000e-03  9.243639973499416e-01 
1.000000e-02  8.056542045317124e-01 
1.500000e-02  6.583268699636627e-01 
2.000000e-02  4.970791306495648e-01 
2.500000e-02  3.382028721334294e-01 
3.000000e-02  1.977477832039284e-01 
3.500000e-02  8.972925010941457e-02 
4.000000e-02  2.440850619528531e-02 
4.500000e-02  4.739679209961560e-03 
5.000000e-02  4.698102045784728e-03 
5.500000e-02  4.631976008450704e-03 
6.000000e-02  5.402839555861703e-03 
6.500000e-02  2.959995224427514e-02 
7.000000e-02  9.799529415861628e-02 
7.500000e-02  2.063578287028850e-01 
8.000000e-02  3.442671409660388e-01 
8.500000e-02  4.979205480692021e-01 
9.000000e-02  6.517755427890560e-01 
9.500000e-02  7.902691370796956e-01 
1.000000e-01  8.995395982857062e-01 
1.050000e-01  9.690728524365856e-01 
1.100000e-01  9.944154286714681e-01 
1.150000e-01  9.953557279814718e-01 
1.200000e-01  9.952237220719756e-01 
1.250000e-01  9.952557806190462e-01 
1.300000e-01  9.951771421024862e-01 
1.350000e-01  9.956298119800239e-01 
1.400000e-01  9.859741978773952e-01 
1.450000e-01  9.356199657801560e-01 
1.500000e-01  8.424947078952998e-01 
1.550000e-01  7.150483822592706e-01 
1.600000e-01  5.658958311211516e-01 
1.650000e-01  4.100761138681490e-01 
1.700000e-01  2.633627785249048e-01 
1.750000e-01  1.405253262778776e-01 
1.800000e-01  5.365396687526914e-02 
1.850000e-01  1.029857459213585e-02 
1.900000e-01  4.447129688101635e-03 
1.950000e-01  4.446600556394121e-03 
2.000000e-01  1.032472637086657e-02 
2.050000e-01  5.373958753144721e-02 
2.100000e-01  1.406649936952985e-01 
2.150000e-01  2.635429709983476e-01 
2.200000e-01  4.102787041649485e-01 
2.250000e-01  5.661002479687173e-01 
2.300000e-01  7.152338976949528e-01 
2.350000e-01  8.426427457550993e-01 
2.400000e-01  9.357163107005623e-01 
2.450000e-01  9.860120432388356e-01 
2.500000e-01  9.956442516267721e-01 
2.550000e-01  9.951113750960975e-01 
2.600000e-01  9.956462928079247e-01 
2.650000e-01  9.861412107758609e-01 
2.700000e-01  9.360523826315768e-01 
2.750000e-01  8.431608195151501e-01 
2.800000e-01  7.158838889242838e-01 
2.850000e-01  5.668171091935243e-01 
2.900000e-01  4.109900019015192e-01 
2.950000e-01  2.641768830727206e-01 
3.000000e-01  1.411582607348096e-01 
3.050000e-01  5.404504640967463e-02 
3.100000e-01  1.042374623734487e-02 
3.150000e-01  4.366021451823222e-03 
3.200000e-01  4.823735351474578e-03 
3.250000e-01  4.742915233966533e-03 
3.300000e-01  4.785606410672429e-03 
3.350000e-01  4.590789012729923e-03 
3.400000e-01  6.087958701931349e-03 
3.450000e-01  3.466328584141928e-02 
3.500000e-01  1.074656065224092e-01 
3.550000e-01  2.193496211700776e-01 
3.600000e-01  3.594926575590771e-01 
3.650000e-01  5.138522699561676e-01 
3.700000e-01  6.668140038918509e-01 
3.750000e-01  8.029172654269047e-01 
3.800000e-01  9.085703977505675e-01 
3.850000e-01  9.736992372985425e-01 
3.900000e-01  9.949126207248541e-01 
3.950000e-01  9.952907837992280e-01 
4.000000e-01  9.952346230295165e-01 
4.050000e-01  9.952434614214060e-01 
4.100000e-01  9.952420833522294e-01 
4.150000e-01  9.952422994214333e-01 
4.200000e-01  9.952422652733999e-01 
4.250000e-01  9.952422779751000e-01 
4.300000e-01  9.952422335879931e-01 
4.350000e-01  9.952425168000321e-01 
4.400000e-01  9.952407078634233e-01 
4.450000e-01  9.952522765482820e-01 
4.500000e-01  9.951774561983155e-01 
4.550000e-01  9.956278193742930e-01 
4.600000e-01  9.858822328811445e-01 
4.650000e-01  9.353842616097603e-01 
4.700000e-01  8.421337501098300e-01 
4.750000e-01  7.145977885137709e-01 
4.800000e-01  5.654013044605696e-01 
4.850000e-01  4.095881698495424e-01 
4.900000e-01  2.629311928075797e-01 
4.950000e-01  1.401936452111047e-01 
5.000000e-01  5.345436306898595e-02 
5.050000e-01  1.024386177806070e-02 
5.100000e-01  4.369500316824241e-03 
5.150000e-01  4.822434610408219e-03 
5.200000e-01  4.747125951155193e-03 
5.250000e-01  4.758751290738429e-03 
5.300000e-01  4.756912625371900e-03 
5.350000e-01  4.757180853693684e-03 
5.400000e-01  4.757113972787420e-03 
5.450000e-01  4.757138275221292e-03 
5.500000e-01  4.756899735936209e-03 
5.550000e-01  4.758293930411101e-03 
5.600000e-01  4.749254725881879e-03 
5.650000e-01  4.807446621490553e-03 
5.700000e-01  4.452464422828522e-03 
5.750000e-01  7.935793654435816e-03 
5.800000e-01  4.469340402567069e-02 
5.850000e-01  1.254451800862668e-01 
5.900000e-01  2.436036077597335e-01 
5.950000e-01  3.876149513514835e-01 
6.000000e-01  5.430081412061200e-01 
6.050000e-01  6.940559041046158e-01 
6.100000e-01  8.255094354753019e-01 
6.150000e-01  9.243002253903059e-01 
6.200000e-01  9.812192619789893e-01 
6.250000e-01  9.954621196306219e-01 
6.300000e-01  9.952062476103632e-01 
6.350000e-01  9.952476033654318e-01 
6.400000e-01  9.952414584633018e-01 
6.450000e-01  9.952407946869088e-01 
6.500000e-01  9.952514359472407e-01 
6.550000e-01  9.951817980338067e-01 
6.600000e-01  9.956029607157101e-01 
6.650000e-01  9.847925765235970e-01 
6.700000e-01  9.326405632938306e-01 
6.750000e-01  8.379464290829728e-01 
6.800000e-01  7.093749351575612e-01 
6.850000e-01  5.596684554438480e-01 
6.900000e-01  4.039272826866022e-01 
6.950000e-01  2.579164333630578e-01 
7.000000e-01  1.363278357733198e-01 
7.050000e-01  5.110902519053055e-02 
7.100000e-01  9.559600634723645e-03 
7.150000e-01  4.386016514019857e-03 
7.200000e-01  4.819351646862683e-03 
7.250000e-01  4.747492629935337e-03 
7.300000e-01  4.758625549485005e-03 
7.350000e-01  4.756654401805688e-03 
7.400000e-01  4.758302936123893e-03 
7.450000e-01  4.749345326549587e-03 
7.500000e-01  4.806752924582573e-03 
7.550000e-01  4.456384112802994e-03 
7.600000e-01  7.864694281865264e-03 
7.650000e-01  4.437546140710242e-02 
7.700000e-01  1.248937422849186e-01 
7.750000e-01  2.428708222189914e-01 
7.800000e-01  3.867738723734327e-01 
7.850000e-01  5.421437895982530e-01 
7.900000e-01  6.932558253980823e-01 
7.950000e-01  8.248540511221362e-01 
8.000000e-01  9.238536073781531e-01 
8.050000e-01  9.810183444353503e-01 
8.100000e-01  9.954517481804909e-01 
8.150000e-01  9.952080399900413e-01 
8.200000e-01  9.952473850699382e-01 
8.250000e-01  9.952416064584114e-01 
8.300000e-01  9.952407227932077e-01 
8.350000e-01  9.952526301263618e-01 
8.400000e-01  9.951749468322895e-01 
8.450000e-01  9.956418695589636e-01 
8.500000e-01  9.868596091847278e-01 
8.550000e-01  9.379595482911636e-01 
8.600000e-01  8.461154564492490e-01 
8.650000e-01  7.195985536149248e-01 
8.700000e-01  5.709180233181532e-01 
8.750000e-01  4.150606588141254e-01 
8.800000e-01  2.678040278625590e-01 
8.850000e-01  1.439775897772320e-01 
8.900000e-01  5.578435010867823e-02 
8.950000e-01  1.097086753270376e-02 
9.000000e-01  4.358367470105906e-03 
9.050000e-01  4.824760199584672e-03 
9.100000e-01  4.747203868021620e-03 
9.150000e-01  4.759144502764642e-03 
9.200000e-01  4.758224775155881e-03 
9.250000e-01  4.752949765644373e-03 
9.300000e-01  4.789297818433373e-03 
9.350000e-01  2.277373305616198e-02 
9.400000e-01  8.426680704126921e-02 
9.450000e-01  1.869082431869909e-01 
9.500000e-01  3.209972505397935e-01 
9.550000e-01  4.731682495535532e-01 
9.600000e-01  6.280480506808560e-01 
9.650000e-01  7.699652821880116e-01 
9.700000e-01  8.846805937079504e-01 
9.750000e-01  9.610392604387719e-01 
9.800000e-01  9.932164742455075e-01 
9.850000e-01  9.954710228440030e-01 
9.900000e-01  9.952057224450575e-01 
9.950000e-01  9.952488502527224e-01 
1.000000e+00  9.952411339565609e-01 
