TITLE ="t=27.532747" 
VARIABLES = "x"                 "phi" 
ZONE I=201, ZONETYPE=Ordered, DATAPACKING=POINT
0.000000e+00  1.005860956265263e+00 
5.000000e-03  9.686685965468165e-01 
1.000000e-02  9.141824879374862e-01 
1.500000e-02  8.180267792491829e-01 
2.000000e-02  6.892893292016844e-01 
2.500000e-02  5.407697593917531e-01 
3.000000e-02  3.874532193286058e-01 
3.500000e-02  2.448488145093241e-01 
4.000000e-02  1.272818381019647e-01 
4.500000e-02  4.625379044705647e-02 
5.000000e-02  8.463726141751317e-03 
5.500000e-02  4.464851221568648e-03 
6.000000e-02  4.839443210075889e-03 
6.500000e-02  4.722815564897911e-03 
7.000000e-02  2.174776080161263e-02 
7.500000e-02  8.203667695704801e-02 
8.000000e-02  1.836491398090501e-01 
8.500000e-02  3.170278894046590e-01 
9.000000e-02  4.688915327265663e-01 
9.500000e-02  6.239025425233199e-01 
1.000000e-01  7.663758798623718e-01 
1.050000e-01  8.820106635443723e-01 
1.100000e-01  9.595447654574101e-01 
1.150000e-01  9.929407249127830e-01 
1.200000e-01  9.954920469517636e-01 
1.250000e-01  9.951997882575512e-01 
1.300000e-01  9.952615131237885e-01 
1.350000e-01  9.951579422640061e-01 
1.400000e-01  9.765555756621925e-01 
1.450000e-01  9.143479124054951e-01 
1.500000e-01  8.111116065571145e-01 
1.550000e-01  6.766219954931919e-01 
1.600000e-01  5.242897080310047e-01 
1.650000e-01  3.695057668810525e-01 
1.700000e-01  2.279310405101350e-01 
1.750000e-01  1.137668504819217e-01 
1.800000e-01  3.810348459667865e-02 
1.850000e-01  6.638194269666203e-03 
1.900000e-01  4.523359220960040e-03 
1.950000e-01  4.899656197404316e-03 
2.000000e-01  2.349944567768006e-02 
2.050000e-01  8.572955328852964e-02 
2.100000e-01  1.889836058739288e-01 
2.150000e-01  3.234834558423580e-01 
2.200000e-01  4.758171636625831e-01 
2.250000e-01  6.305934598664208e-01 
2.300000e-01  7.721522498188269e-01 
2.350000e-01  8.862939216569917e-01 
2.400000e-01  9.619307572794132e-01 
2.450000e-01  9.933707089092384e-01 
2.500000e-01  9.954614681307662e-01 
2.550000e-01  9.951872188053600e-01 
2.600000e-01  9.953744318436379e-01 
2.650000e-01  9.795110241388947e-01 
2.700000e-01  9.205557018861340e-01 
2.750000e-01  8.200412678281860e-01 
2.800000e-01  6.873990818927453e-01 
2.850000e-01  5.358318418056920e-01 
2.900000e-01  3.806459183769790e-01 
2.950000e-01  2.375460661401398e-01 
3.000000e-01  1.209025768714653e-01 
3.050000e-01  4.209416935568810e-02 
3.100000e-01  7.379797078043130e-03 
3.150000e-01  4.485697499312657e-03 
3.200000e-01  4.802304768929396e-03 
3.250000e-01  4.746121041643743e-03 
3.300000e-01  4.784443932279290e-03 
3.350000e-01  4.594236475283241e-03 
3.400000e-01  6.053773417528973e-03 
3.450000e-01  3.442910936339875e-02 
3.500000e-01  1.070310117925478e-01 
3.550000e-01  2.187544610653988e-01 
3.600000e-01  3.587957146075756e-01 
3.650000e-01  5.131236238255994e-01 
3.700000e-01  6.661271970884678e-01 
3.750000e-01  8.023412093525961e-01 
3.800000e-01  9.081615849236473e-01 
3.850000e-01  9.734936578542227e-01 
3.900000e-01  9.948930980278166e-01 
3.950000e-01  9.952935267417861e-01 
4.000000e-01  9.952342546990610e-01 
4.050000e-01  9.952436096991073e-01 
4.100000e-01  9.952421739766990e-01 
4.150000e-01  9.952424219426086e-01 
4.200000e-01  9.952424056300356e-01 
4.250000e-01  9.952424387666794e-01 
4.300000e-01  9.952424118362189e-01 
4.350000e-01  9.952427294121652e-01 
4.400000e-01  9.952408470426447e-01 
4.450000e-01  9.952530293939349e-01 
4.500000e-01  9.951743542849835e-01 
4.550000e-01  9.956465683979788e-01 
4.600000e-01  9.884098339262043e-01 
4.650000e-01  9.423360400445072e-01 
4.700000e-01  8.530082040665251e-01 
4.750000e-01  7.283386407924142e-01 
4.800000e-01  5.806264399887652e-01 
4.850000e-01  4.247514022924665e-01 
4.900000e-01  2.764930263695183e-01 
4.950000e-01  1.507914643498825e-01 
5.000000e-01  6.006325041685965e-02 
5.050000e-01  1.242188580453233e-02 
5.100000e-01  4.353064520213665e-03 
5.150000e-01  4.825774013910528e-03 
5.200000e-01  4.746973305925070e-03 
5.250000e-01  4.759135626582798e-03 
5.300000e-01  4.757217207842014e-03 
5.350000e-01  4.757501492658439e-03 
5.400000e-01  4.757439197217680e-03 
5.450000e-01  4.757447790894857e-03 
5.500000e-01  4.757338040987220e-03 
5.550000e-01  4.757933610100825e-03 
5.600000e-01  4.754023701431481e-03 
5.650000e-01  4.779040016842133e-03 
5.700000e-01  4.622155280930991e-03 
5.750000e-01  5.790607032130494e-03 
5.800000e-01  3.252835459480042e-02 
5.850000e-01  1.034740573386185e-01 
5.900000e-01  2.138656502513714e-01 
5.950000e-01  3.530572726555619e-01 
6.000000e-01  5.071123177785084e-01 
6.050000e-01  6.604497413255901e-01 
6.100000e-01  7.975674778371719e-01 
6.150000e-01  9.047603039378912e-01 
6.200000e-01  9.717663268667828e-01 
6.250000e-01  9.947192787343021e-01 
6.300000e-01  9.953169440239386e-01 
6.350000e-01  9.952307223656666e-01 
6.400000e-01  9.952446641441703e-01 
6.450000e-01  9.952410538141143e-01 
6.500000e-01  9.952513942102198e-01 
6.550000e-01  9.951872311043312e-01 
6.600000e-01  9.955768274927547e-01 
6.650000e-01  9.914672798618709e-01 
6.700000e-01  9.527772515557886e-01 
6.750000e-01  8.702092485103942e-01 
6.800000e-01  7.506468552694944e-01 
6.850000e-01  6.058053332389024e-01 
6.900000e-01  4.502474695508051e-01 
6.950000e-01  2.997184140383091e-01 
7.000000e-01  1.694095320391825e-01 
7.050000e-01  7.225996798687347e-02 
7.100000e-01  1.726356715026081e-02 
7.150000e-01  4.467580776008150e-03 
7.200000e-01  4.805714515450338e-03 
7.250000e-01  4.750323741932667e-03 
7.300000e-01  4.758844497782344e-03 
7.350000e-01  4.757308672918091e-03 
7.400000e-01  4.758228681714789e-03 
7.450000e-01  4.753110451021747e-03 
7.500000e-01  4.785275241802588e-03 
7.550000e-01  4.584402956514582e-03 
7.600000e-01  6.156344977055941e-03 
7.650000e-01  3.512499928988588e-02 
7.700000e-01  1.083205158006187e-01 
7.750000e-01  2.205192506600641e-01 
7.800000e-01  3.608614579786706e-01 
7.850000e-01  5.152825837974561e-01 
7.900000e-01  6.681614512242976e-01 
7.950000e-01  8.040466348413665e-01 
8.000000e-01  9.093709331033284e-01 
8.050000e-01  9.741005577888877e-01 
8.100000e-01  9.949500495628532e-01 
8.150000e-01  9.952854927642660e-01 
8.200000e-01  9.952353446729429e-01 
8.250000e-01  9.952433341593018e-01 
8.300000e-01  9.952411919211083e-01 
8.350000e-01  9.952470329393998e-01 
8.400000e-01  9.952104544450635e-01 
8.450000e-01  9.954371990673556e-01 
8.500000e-01  9.807449563824812e-01 
8.550000e-01  9.232491971685065e-01 
8.600000e-01  8.239688304475681e-01 
8.650000e-01  6.921763843109570e-01 
8.700000e-01  5.409786372100385e-01 
8.750000e-01  3.856410029197176e-01 
8.800000e-01  2.418847126640784e-01 
8.850000e-01  1.241526351530782e-01 
8.900000e-01  4.394931523812622e-02 
8.950000e-01  7.770814220583649e-03 
9.000000e-01  4.461762609591400e-03 
9.050000e-01  4.805796592217328e-03 
9.100000e-01  4.750133801642828e-03 
9.150000e-01  4.754872159968962e-03 
9.200000e-01  4.779513123211159e-03 
9.250000e-01  4.617191532587306e-03 
9.300000e-01  5.835757151745973e-03 
9.350000e-01  3.286759413786978e-02 
9.400000e-01  1.041127172522487e-01 
9.450000e-01  2.147456797445481e-01 
9.500000e-01  3.540919018377092e-01 
9.550000e-01  5.081975532666597e-01 
9.600000e-01  6.614760304775330e-01 
9.650000e-01  7.984317748423396e-01 
9.700000e-01  9.053776956226962e-01 
9.750000e-01  9.720819038804852e-01 
9.800000e-01  9.947522767053466e-01 
9.850000e-01  9.953125197192172e-01 
9.900000e-01  9.952312594913109e-01 
9.950000e-01  9.952441386603580e-01 
1.000000e+00  9.952418257682408e-01 
