TITLE ="t=0.000000" 
VARIABLES = "x"                 "phi" 
ZONE I=201, ZONETYPE=Ordered, DATAPACKING=POINT
0.000000e+00  4.616391062736511e-01 
5.000000e-03  5.464846789836884e-01 
1.000000e-02  5.382970392704011e-01 
1.500000e-02  4.920486867427826e-01 
2.000000e-02  4.995856344699860e-01 
2.500000e-02  5.077386140823364e-01 
3.000000e-02  5.442340135574342e-01 
3.500000e-02  4.743162393569946e-01 
4.000000e-02  5.050126791000367e-01 
4.500000e-02  5.189230263233185e-01 
5.000000e-02  4.976426422595978e-01 
5.500000e-02  5.462395668029786e-01 
6.000000e-02  4.844172060489655e-01 
6.500000e-02  4.561491787433624e-01 
7.000000e-02  4.603925645351410e-01 
7.500000e-02  4.587628781795502e-01 
8.000000e-02  5.394561409950257e-01 
8.500000e-02  5.282492518424988e-01 
9.000000e-02  5.231956303119660e-01 
9.500000e-02  5.262118518352509e-01 
1.000000e-01  5.479250550270081e-01 
1.050000e-01  5.119737744331361e-01 
1.100000e-01  4.650397360324860e-01 
1.150000e-01  5.343210875988007e-01 
1.200000e-01  4.674029350280762e-01 
1.250000e-01  4.904647886753082e-01 
1.300000e-01  4.884494960308075e-01 
1.350000e-01  5.125162720680237e-01 
1.400000e-01  4.865620613098145e-01 
1.450000e-01  5.088001430034638e-01 
1.500000e-01  5.431122720241547e-01 
1.550000e-01  4.865839123725891e-01 
1.600000e-01  4.597150444984436e-01 
1.650000e-01  4.817099213600159e-01 
1.700000e-01  4.890669763088227e-01 
1.750000e-01  4.994078695774078e-01 
1.800000e-01  4.512336254119873e-01 
1.850000e-01  5.316195964813233e-01 
1.900000e-01  5.348887443542480e-01 
1.950000e-01  5.077080726623535e-01 
2.000000e-01  4.880885899066925e-01 
2.050000e-01  5.476957321166993e-01 
2.100000e-01  5.111097872257233e-01 
2.150000e-01  4.666961252689362e-01 
2.200000e-01  5.133944571018220e-01 
2.250000e-01  4.866759002208710e-01 
2.300000e-01  5.302411317825317e-01 
2.350000e-01  5.065914809703828e-01 
2.400000e-01  5.016467988491059e-01 
2.450000e-01  5.055958688259125e-01 
2.500000e-01  5.207858562469483e-01 
2.550000e-01  4.966635704040527e-01 
2.600000e-01  4.936749219894410e-01 
2.650000e-01  5.362438619136811e-01 
2.700000e-01  5.057972550392151e-01 
2.750000e-01  5.156921327114106e-01 
2.800000e-01  5.078437507152558e-01 
2.850000e-01  4.502856850624085e-01 
2.900000e-01  4.837642610073090e-01 
2.950000e-01  5.477993071079255e-01 
3.000000e-01  5.228892803192139e-01 
3.050000e-01  4.920889317989350e-01 
3.100000e-01  4.808147609233857e-01 
3.150000e-01  4.704581737518311e-01 
3.200000e-01  4.534435570240021e-01 
3.250000e-01  5.424220681190491e-01 
3.300000e-01  4.614212274551392e-01 
3.350000e-01  4.648093283176422e-01 
3.400000e-01  4.701475799083710e-01 
3.450000e-01  4.520743191242218e-01 
3.500000e-01  5.088006675243378e-01 
3.550000e-01  5.375206589698792e-01 
3.600000e-01  5.455072462558747e-01 
3.650000e-01  5.162751197814942e-01 
3.700000e-01  4.889007806777954e-01 
3.750000e-01  4.921982586383820e-01 
3.800000e-01  4.998315751552582e-01 
3.850000e-01  5.003074407577515e-01 
3.900000e-01  5.431923568248749e-01 
3.950000e-01  5.079334914684296e-01 
4.000000e-01  4.800369739532471e-01 
4.050000e-01  4.838422298431397e-01 
4.100000e-01  5.169769287109376e-01 
4.150000e-01  5.262706816196442e-01 
4.200000e-01  5.362163007259370e-01 
4.250000e-01  4.655375301837921e-01 
4.300000e-01  5.003659427165985e-01 
4.350000e-01  5.265044569969177e-01 
4.400000e-01  5.206207692623139e-01 
4.450000e-01  4.585128247737885e-01 
4.500000e-01  4.913081109523774e-01 
4.550000e-01  5.083849787712098e-01 
4.600000e-01  5.489222705364227e-01 
4.650000e-01  4.580402970314026e-01 
4.700000e-01  5.400863587856293e-01 
4.750000e-01  4.918210268020630e-01 
4.800000e-01  4.522183239459991e-01 
4.850000e-01  5.470125496387482e-01 
4.900000e-01  4.885029554367066e-01 
4.950000e-01  5.069394469261170e-01 
5.000000e-01  5.029263377189637e-01 
5.050000e-01  4.507483243942261e-01 
5.100000e-01  5.225978732109070e-01 
5.150000e-01  5.479902505874634e-01 
5.200000e-01  4.949757933616639e-01 
5.250000e-01  4.633089721202850e-01 
5.300000e-01  4.520747542381287e-01 
5.350000e-01  5.037920534610748e-01 
5.400000e-01  4.947147905826569e-01 
5.450000e-01  4.708824574947357e-01 
5.500000e-01  4.877618551254272e-01 
5.550000e-01  4.947436690330506e-01 
5.600000e-01  4.739961385726929e-01 
5.650000e-01  5.282092273235321e-01 
5.700000e-01  4.588204085826874e-01 
5.750000e-01  4.662553966045380e-01 
5.800000e-01  5.056011915206909e-01 
5.850000e-01  4.629920840263367e-01 
5.900000e-01  5.433429002761841e-01 
5.950000e-01  5.072037577629089e-01 
6.000000e-01  4.959699392318726e-01 
6.050000e-01  4.805587649345398e-01 
6.100000e-01  5.113519072532654e-01 
6.150000e-01  5.221646189689637e-01 
6.200000e-01  4.747778534889222e-01 
6.250000e-01  4.539096593856812e-01 
6.300000e-01  5.126530230045319e-01 
6.350000e-01  5.105424165725708e-01 
6.400000e-01  5.479026973247528e-01 
6.450000e-01  5.062598586082458e-01 
6.500000e-01  4.790838181972504e-01 
6.550000e-01  4.905738115310669e-01 
6.600000e-01  5.281015038490295e-01 
6.650000e-01  5.295637130737305e-01 
6.700000e-01  5.077509880065918e-01 
6.750000e-01  4.847939133644104e-01 
6.800000e-01  4.778441727161408e-01 
6.850000e-01  4.568624556064606e-01 
6.900000e-01  4.937597453594208e-01 
6.950000e-01  5.140313267707826e-01 
7.000000e-01  4.635236918926239e-01 
7.050000e-01  4.649225950241089e-01 
7.100000e-01  5.076597154140473e-01 
7.150000e-01  4.799688398838043e-01 
7.200000e-01  4.949607193470001e-01 
7.250000e-01  4.563868582248688e-01 
7.300000e-01  4.517461657524109e-01 
7.350000e-01  4.819482803344727e-01 
7.400000e-01  4.960143148899079e-01 
7.450000e-01  4.993031978607178e-01 
7.500000e-01  5.301045536994935e-01 
7.550000e-01  4.649304568767548e-01 
7.600000e-01  4.565877854824066e-01 
7.650000e-01  5.055965662002564e-01 
7.700000e-01  5.090729653835298e-01 
7.750000e-01  4.573817431926727e-01 
7.800000e-01  4.562273681163788e-01 
7.850000e-01  5.243274509906769e-01 
7.900000e-01  4.600185871124268e-01 
7.950000e-01  5.356243610382081e-01 
8.000000e-01  4.730017066001893e-01 
8.050000e-01  4.642501175403595e-01 
8.100000e-01  5.404947936534882e-01 
8.150000e-01  5.322933018207551e-01 
8.200000e-01  4.698147356510163e-01 
8.250000e-01  4.832486033439636e-01 
8.300000e-01  5.093364775180818e-01 
8.350000e-01  5.334988415241242e-01 
8.400000e-01  5.307992517948151e-01 
8.450000e-01  4.913588702678681e-01 
8.500000e-01  5.287317693233491e-01 
8.550000e-01  5.100834667682648e-01 
8.600000e-01  5.387326717376709e-01 
8.650000e-01  5.424969494342804e-01 
8.700000e-01  4.871972203254700e-01 
8.750000e-01  5.329683423042297e-01 
8.800000e-01  4.710236608982086e-01 
8.850000e-01  4.737586081027985e-01 
8.900000e-01  4.617610156536102e-01 
8.950000e-01  5.451597511768341e-01 
9.000000e-01  4.698746800422668e-01 
9.050000e-01  5.113775908946991e-01 
9.100000e-01  4.830332458019257e-01 
9.150000e-01  5.326836109161377e-01 
9.200000e-01  4.696195483207703e-01 
9.250000e-01  5.177018404006959e-01 
9.300000e-01  4.522084414958954e-01 
9.350000e-01  5.271506369113923e-01 
9.400000e-01  5.415420711040497e-01 
9.450000e-01  5.288570284843446e-01 
9.500000e-01  5.154983162879945e-01 
9.550000e-01  5.074765324592591e-01 
9.600000e-01  5.292287528514863e-01 
9.650000e-01  4.978720128536225e-01 
9.700000e-01  5.470411360263825e-01 
9.750000e-01  4.579101920127869e-01 
9.800000e-01  5.301714837551117e-01 
9.850000e-01  5.342602670192719e-01 
9.900000e-01  5.142716944217682e-01 
9.950000e-01  5.056567132472992e-01 
1.000000e+00  4.525100171566009e-01 
