TITLE ="t=0.000021" 
VARIABLES = "x"                 "phi" 
ZONE I=201, ZONETYPE=Ordered, DATAPACKING=POINT
0.000000e+00  6.716927960221771e-01 
5.000000e-03  4.889041165176340e-01 
1.000000e-02  4.666774599171454e-01 
1.500000e-02  5.071970363417468e-01 
2.000000e-02  5.171507785570618e-01 
2.500000e-02  5.120101062632875e-01 
3.000000e-02  5.088140428203274e-01 
3.500000e-02  5.046141512489132e-01 
4.000000e-02  5.016658390181803e-01 
4.500000e-02  5.088724985211999e-01 
5.000000e-02  5.200467079292330e-01 
5.500000e-02  5.163111771144548e-01 
6.000000e-02  4.913446705534922e-01 
6.500000e-02  4.633319074254084e-01 
7.000000e-02  4.577585311768561e-01 
7.500000e-02  4.799809980884900e-01 
8.000000e-02  5.106321158119247e-01 
8.500000e-02  5.296616463632389e-01 
9.000000e-02  5.349463557078874e-01 
9.500000e-02  5.331988597211155e-01 
1.000000e-01  5.259001116429595e-01 
1.050000e-01  5.129833800645219e-01 
1.100000e-01  4.997673788309591e-01 
1.150000e-01  4.918176528892050e-01 
1.200000e-01  4.891052460971140e-01 
1.250000e-01  4.889611245522253e-01 
1.300000e-01  4.905994322785091e-01 
1.350000e-01  4.959516263456708e-01 
1.400000e-01  5.062830918928815e-01 
1.450000e-01  5.155259028996753e-01 
1.500000e-01  5.121838678005928e-01 
1.550000e-01  4.951503411105702e-01 
1.600000e-01  4.792497201742748e-01 
1.650000e-01  4.758596555079412e-01 
1.700000e-01  4.798052712529819e-01 
1.750000e-01  4.846045787485902e-01 
1.800000e-01  4.940924467257150e-01 
1.850000e-01  5.086549776094187e-01 
1.900000e-01  5.181631538938023e-01 
1.950000e-01  5.182749724138844e-01 
2.000000e-01  5.162054520345206e-01 
2.050000e-01  5.142847496027717e-01 
2.100000e-01  5.065363758455246e-01 
2.150000e-01  4.955402491957723e-01 
2.200000e-01  4.935415619525867e-01 
2.250000e-01  5.028167774405056e-01 
2.300000e-01  5.114988532322221e-01 
2.350000e-01  5.118439682720284e-01 
2.400000e-01  5.085719522542936e-01 
2.450000e-01  5.070768033304601e-01 
2.500000e-01  5.059576329413447e-01 
2.550000e-01  5.045069743453047e-01 
2.600000e-01  5.074157230640303e-01 
2.650000e-01  5.159538737017084e-01 
2.700000e-01  5.202610928005357e-01 
2.750000e-01  5.091601769345386e-01 
2.800000e-01  4.882777170403503e-01 
2.850000e-01  4.793647125236380e-01 
2.900000e-01  4.947643918323238e-01 
2.950000e-01  5.185866424198218e-01 
3.000000e-01  5.231705493874917e-01 
3.050000e-01  5.020177598568520e-01 
3.100000e-01  4.767438446694469e-01 
3.150000e-01  4.705356162151159e-01 
3.200000e-01  4.826664093757825e-01 
3.250000e-01  4.927381291780242e-01 
3.300000e-01  4.854986277542697e-01 
3.350000e-01  4.670174143921613e-01 
3.400000e-01  4.576683220743931e-01 
3.450000e-01  4.718707343520732e-01 
3.500000e-01  5.039288156979644e-01 
3.550000e-01  5.320688795082057e-01 
3.600000e-01  5.372685008695058e-01 
3.650000e-01  5.197716794826093e-01 
3.700000e-01  4.973522751698655e-01 
3.750000e-01  4.886463880876440e-01 
3.800000e-01  4.984746575137510e-01 
3.850000e-01  5.151245926939312e-01 
3.900000e-01  5.202423486457386e-01 
3.950000e-01  5.071239218005220e-01 
4.000000e-01  4.910292433448913e-01 
4.050000e-01  4.929689052479310e-01 
4.100000e-01  5.112622496014997e-01 
4.150000e-01  5.219988373451186e-01 
4.200000e-01  5.130325017766503e-01 
4.250000e-01  5.008568323288074e-01 
4.300000e-01  5.024891898516780e-01 
4.350000e-01  5.085814200465115e-01 
4.400000e-01  5.023845129415170e-01 
4.450000e-01  4.901872084593487e-01 
4.500000e-01  4.909048763222255e-01 
4.550000e-01  5.052300414519952e-01 
4.600000e-01  5.157372069843490e-01 
4.650000e-01  5.119508389556927e-01 
4.700000e-01  4.999049179111815e-01 
4.750000e-01  4.914406696808907e-01 
4.800000e-01  4.937781259277190e-01 
4.850000e-01  5.039563090128739e-01 
4.900000e-01  5.088230021332545e-01 
4.950000e-01  4.993144930715329e-01 
5.000000e-01  4.867860419470842e-01 
5.050000e-01  4.915702341879313e-01 
5.100000e-01  5.116709571646753e-01 
5.150000e-01  5.199842683115796e-01 
5.200000e-01  5.013171217362594e-01 
5.250000e-01  4.752207565435444e-01 
5.300000e-01  4.686611341356346e-01 
5.350000e-01  4.804627131728300e-01 
5.400000e-01  4.893335450989924e-01 
5.450000e-01  4.867632675473617e-01 
5.500000e-01  4.836993478194461e-01 
5.550000e-01  4.886355802212625e-01 
5.600000e-01  4.949152918053416e-01 
5.650000e-01  4.920898850446580e-01 
5.700000e-01  4.809878266565659e-01 
5.750000e-01  4.738143798371809e-01 
5.800000e-01  4.811775767738879e-01 
5.850000e-01  4.993921803440278e-01 
5.900000e-01  5.122402540060402e-01 
5.950000e-01  5.092289145567839e-01 
6.000000e-01  4.993586824849267e-01 
6.050000e-01  4.981649920135879e-01 
6.100000e-01  5.036459581154794e-01 
6.150000e-01  4.994687070783909e-01 
6.200000e-01  4.838234674281479e-01 
6.250000e-01  4.776752831858208e-01 
6.300000e-01  4.953713323706178e-01 
6.350000e-01  5.208569144756495e-01 
6.400000e-01  5.266222086410272e-01 
6.450000e-01  5.093068615760352e-01 
6.500000e-01  4.929492000326032e-01 
6.550000e-01  4.975717609262721e-01 
6.600000e-01  5.158443252512617e-01 
6.650000e-01  5.244077403056073e-01 
6.700000e-01  5.111856428643264e-01 
6.750000e-01  4.868465720735647e-01 
6.800000e-01  4.720350739918798e-01 
6.850000e-01  4.757842837876527e-01 
6.900000e-01  4.869691951865073e-01 
6.950000e-01  4.892425948657191e-01 
7.000000e-01  4.822428464486452e-01 
7.050000e-01  4.796709372313556e-01 
7.100000e-01  4.864862301891339e-01 
7.150000e-01  4.904453363563883e-01 
7.200000e-01  4.808247515251152e-01 
7.250000e-01  4.650038834229109e-01 
7.300000e-01  4.603166070246614e-01 
7.350000e-01  4.745608372726654e-01 
7.400000e-01  4.971719681014656e-01 
7.450000e-01  5.082925438429667e-01 
7.500000e-01  4.992086327899673e-01 
7.550000e-01  4.833854285725806e-01 
7.600000e-01  4.796582852967214e-01 
7.650000e-01  4.866114646956135e-01 
7.700000e-01  4.872471439842073e-01 
7.750000e-01  4.781901710959504e-01 
7.800000e-01  4.754805993012617e-01 
7.850000e-01  4.868251640340614e-01 
7.900000e-01  4.974406707097294e-01 
7.950000e-01  4.944243792419747e-01 
8.000000e-01  4.888379785635144e-01 
8.050000e-01  4.970652094225180e-01 
8.100000e-01  5.114650968434893e-01 
8.150000e-01  5.108973757633161e-01 
8.200000e-01  4.959950640773805e-01 
8.250000e-01  4.905571937941736e-01 
8.300000e-01  5.053058037256152e-01 
8.350000e-01  5.223276845470676e-01 
8.400000e-01  5.232727493547870e-01 
8.450000e-01  5.145246334506343e-01 
8.500000e-01  5.133238646354257e-01 
8.550000e-01  5.224960249624969e-01 
8.600000e-01  5.308612887875017e-01 
8.650000e-01  5.298112645854185e-01 
8.700000e-01  5.186563853654304e-01 
8.750000e-01  5.003536126676487e-01 
8.800000e-01  4.824308910027550e-01 
8.850000e-01  4.763291039220990e-01 
8.900000e-01  4.852234167807281e-01 
8.950000e-01  4.974436214567504e-01 
9.000000e-01  5.013299850782166e-01 
9.050000e-01  5.000299228706324e-01 
9.100000e-01  5.015926413747321e-01 
9.150000e-01  5.026792350412853e-01 
9.200000e-01  4.957133320477931e-01 
9.250000e-01  4.869190113551202e-01 
9.300000e-01  4.917854467879865e-01 
9.350000e-01  5.120478116419657e-01 
9.400000e-01  5.301074028338801e-01 
9.450000e-01  5.310195944769313e-01 
9.500000e-01  5.206664059083158e-01 
9.550000e-01  5.147616876928397e-01 
9.600000e-01  5.163908132679986e-01 
9.650000e-01  5.152791808742223e-01 
9.700000e-01  5.078781611936252e-01 
9.750000e-01  5.052921371082340e-01 
9.800000e-01  5.149864414488792e-01 
9.850000e-01  5.246371263974609e-01 
9.900000e-01  5.163640663100039e-01 
9.950000e-01  4.937767184370796e-01 
1.000000e+00  4.813862294295872e-01 
