TITLE ="t=0.077110" 
VARIABLES = "x"                 "phi" 
ZONE I=201, ZONETYPE=Ordered, DATAPACKING=POINT
0.000000e+00  1.003262740045210e+00 
5.000000e-03  9.784124438110454e-01 
1.000000e-02  9.571115764569329e-01 
1.500000e-02  9.058347302067717e-01 
2.000000e-02  8.240684593510023e-01 
2.500000e-02  7.162782605215203e-01 
3.000000e-02  5.907552882183543e-01 
3.500000e-02  4.581757866709634e-01 
4.000000e-02  3.300967587978648e-01 
4.500000e-02  2.174547832709242e-01 
5.000000e-02  1.291793726535108e-01 
5.500000e-02  7.111039221696326e-02 
6.000000e-02  4.553141852744066e-02 
6.500000e-02  5.176418940358000e-02 
7.000000e-02  8.759316255343214e-02 
7.500000e-02  1.494384447439930e-01 
8.000000e-02  2.319407810321880e-01 
8.500000e-02  3.281751367475241e-01 
9.000000e-02  4.302277137712946e-01 
9.500000e-02  5.299553926239283e-01 
1.000000e-01  6.198000482478027e-01 
1.050000e-01  6.935241900844320e-01 
1.100000e-01  7.467424613042580e-01 
1.150000e-01  7.771621332472134e-01 
1.200000e-01  7.845273791319217e-01 
1.250000e-01  7.703594943005648e-01 
1.300000e-01  7.376219637955782e-01 
1.350000e-01  6.903792350685140e-01 
1.400000e-01  6.334404059251200e-01 
1.450000e-01  5.719652591299887e-01 
1.500000e-01  5.110418144362087e-01 
1.550000e-01  4.552748349813007e-01 
1.600000e-01  4.084361940961318e-01 
1.650000e-01  3.732212249743646e-01 
1.700000e-01  3.511348169457076e-01 
1.750000e-01  3.425047651370493e-01 
1.800000e-01  3.465981710759485e-01 
1.850000e-01  3.618076967720530e-01 
1.900000e-01  3.858779736507801e-01 
1.950000e-01  4.161505759169969e-01 
2.000000e-01  4.498110458441931e-01 
2.050000e-01  4.841220199913474e-01 
2.100000e-01  5.166257335819527e-01 
2.150000e-01  5.453004778660825e-01 
2.200000e-01  5.686602347931228e-01 
2.250000e-01  5.857939167212906e-01 
2.300000e-01  5.963484488990379e-01 
2.350000e-01  6.004662981137177e-01 
2.400000e-01  5.986916735992933e-01 
2.450000e-01  5.918603379973806e-01 
2.500000e-01  5.809864974977597e-01 
2.550000e-01  5.671576144676358e-01 
2.600000e-01  5.514449923589130e-01 
2.650000e-01  5.348350167042173e-01 
2.700000e-01  5.181831387448185e-01 
2.750000e-01  5.021901458443443e-01 
2.800000e-01  4.873981036281544e-01 
2.850000e-01  4.742017357891900e-01 
2.900000e-01  4.628700551773449e-01 
2.950000e-01  4.535728212541605e-01 
3.000000e-01  4.464068264883930e-01 
3.050000e-01  4.414179800607702e-01 
3.100000e-01  4.386164850095985e-01 
3.150000e-01  4.379839025880702e-01 
3.200000e-01  4.394723812260767e-01 
3.250000e-01  4.429976336231231e-01 
3.300000e-01  4.484282359316729e-01 
3.350000e-01  4.555743902441638e-01 
3.400000e-01  4.641793708054314e-01 
3.450000e-01  4.739164600242787e-01 
3.500000e-01  4.843933388688442e-01 
3.550000e-01  4.951647634962217e-01 
3.600000e-01  5.057531191427285e-01 
3.650000e-01  5.156752870650838e-01 
3.700000e-01  5.244733559068292e-01 
3.750000e-01  5.317461631981787e-01 
3.800000e-01  5.371785046168814e-01 
3.850000e-01  5.405650735150704e-01 
3.900000e-01  5.418267214290639e-01 
3.950000e-01  5.410173710834039e-01 
4.000000e-01  5.383207758266928e-01 
4.050000e-01  5.340372237800388e-01 
4.100000e-01  5.285611630497075e-01 
4.150000e-01  5.223515131627646e-01 
4.200000e-01  5.158970647163478e-01 
4.250000e-01  5.096797942923278e-01 
4.300000e-01  5.041390885426271e-01 
4.350000e-01  4.996397598076390e-01 
4.400000e-01  4.964463599944940e-01 
4.450000e-01  4.947057075751193e-01 
4.500000e-01  4.944388059800710e-01 
4.550000e-01  4.955425309845451e-01 
4.600000e-01  4.978006762950918e-01 
4.650000e-01  5.009032346276930e-01 
4.700000e-01  5.044722059728266e-01 
4.750000e-01  5.080918019545443e-01 
4.800000e-01  5.113406787742927e-01 
4.850000e-01  5.138237901294020e-01 
4.900000e-01  5.152015974405348e-01 
4.950000e-01  5.152146816779415e-01 
5.000000e-01  5.137022289234614e-01 
5.050000e-01  5.106133638983386e-01 
5.100000e-01  5.060108373848413e-01 
5.150000e-01  5.000670978918601e-01 
5.200000e-01  4.930532667453205e-01 
5.250000e-01  4.853219659759933e-01 
5.300000e-01  4.772852981140726e-01 
5.350000e-01  4.693895245941824e-01 
5.400000e-01  4.620881168257617e-01 
5.450000e-01  4.558148531924530e-01 
5.500000e-01  4.509585147515185e-01 
5.550000e-01  4.478405187429383e-01 
5.600000e-01  4.466965619414638e-01 
5.650000e-01  4.476630675775909e-01 
5.700000e-01  4.507689716268151e-01 
5.750000e-01  4.559331580032688e-01 
5.800000e-01  4.629676468406053e-01 
5.850000e-01  4.715864306985788e-01 
5.900000e-01  4.814196156359474e-01 
5.950000e-01  4.920322481208256e-01 
6.000000e-01  5.029469085608872e-01 
6.050000e-01  5.136688634721914e-01 
6.100000e-01  5.237123378834939e-01 
6.150000e-01  5.326263407373949e-01 
6.200000e-01  5.400184747786291e-01 
6.250000e-01  5.455752899902124e-01 
6.300000e-01  5.490779737832937e-01 
6.350000e-01  5.504124752289412e-01 
6.400000e-01  5.495734972608549e-01 
6.450000e-01  5.466621342955951e-01 
6.500000e-01  5.418772747159251e-01 
6.550000e-01  5.355012329127901e-01 
6.600000e-01  5.278804301248943e-01 
6.650000e-01  5.194023010001588e-01 
6.700000e-01  5.104699374277100e-01 
6.750000e-01  5.014762484352745e-01 
6.800000e-01  4.927795632520782e-01 
6.850000e-01  4.846825901097963e-01 
6.900000e-01  4.774164427843690e-01 
6.950000e-01  4.711310646097917e-01 
7.000000e-01  4.658928470992296e-01 
7.050000e-01  4.616896093811059e-01 
7.100000e-01  4.584424386393149e-01 
7.150000e-01  4.560232558712807e-01 
7.200000e-01  4.542764256485859e-01 
7.250000e-01  4.530423236847534e-01 
7.300000e-01  4.521805502627850e-01 
7.350000e-01  4.515904554944934e-01 
7.400000e-01  4.512268330155925e-01 
7.450000e-01  4.511090339876426e-01 
7.500000e-01  4.513223270536602e-01 
7.550000e-01  4.520110385951783e-01 
7.600000e-01  4.533637929135745e-01 
7.650000e-01  4.555919654494275e-01 
7.700000e-01  4.589031915946862e-01 
7.750000e-01  4.634723690889160e-01 
7.800000e-01  4.694129910318774e-01 
7.850000e-01  4.767517984751205e-01 
7.900000e-01  4.854096113974060e-01 
7.950000e-01  4.951907710347366e-01 
8.000000e-01  5.057829205348775e-01 
8.050000e-01  5.167679167709457e-01 
8.100000e-01  5.276435946033682e-01 
8.150000e-01  5.378550172232925e-01 
8.200000e-01  5.468328744902230e-01 
8.250000e-01  5.540359510045103e-01 
8.300000e-01  5.589941508990059e-01 
8.350000e-01  5.613484562054201e-01 
8.400000e-01  5.608843811926313e-01 
8.450000e-01  5.575559138590599e-01 
8.500000e-01  5.514975630378366e-01 
8.550000e-01  5.430229369861606e-01 
8.600000e-01  5.326092663404230e-01 
8.650000e-01  5.208684344680815e-01 
8.700000e-01  5.085063220478875e-01 
8.750000e-01  4.962734746743108e-01 
8.800000e-01  4.849110850727243e-01 
8.850000e-01  4.750968768797579e-01 
8.900000e-01  4.673955785123396e-01 
8.950000e-01  4.622182699396662e-01 
9.000000e-01  4.597940492961977e-01 
9.050000e-01  4.601563354806887e-01 
9.100000e-01  4.631448438545510e-01 
9.150000e-01  4.684229646825078e-01 
9.200000e-01  4.755090193143662e-01 
9.250000e-01  4.838187266711170e-01 
9.300000e-01  4.927152474636407e-01 
9.350000e-01  5.015624712053985e-01 
9.400000e-01  5.097768665406066e-01 
9.450000e-01  5.168733034827167e-01 
9.500000e-01  5.225008003509548e-01 
9.550000e-01  5.264651049697928e-01 
9.600000e-01  5.287362843341761e-01 
9.650000e-01  5.294409264703447e-01 
9.700000e-01  5.288400002435476e-01 
9.750000e-01  5.272947347858244e-01 
9.800000e-01  5.252239569328915e-01 
9.850000e-01  5.230570769086964e-01 
9.900000e-01  5.211872800635760e-01 
9.950000e-01  5.199294338338224e-01 
1.000000e+00  5.194867544085728e-01 
