TITLE ="t=0.104155" 
VARIABLES = "x"                 "phi" 
ZONE I=201, ZONETYPE=Ordered, DATAPACKING=POINT
0.000000e+00  1.000340251330473e+00 
5.000000e-03  9.899663323318283e-01 
1.000000e-02  9.902098688699091e-01 
1.500000e-02  9.575032875770865e-01 
2.000000e-02  8.836212372528831e-01 
2.500000e-02  7.722113337293024e-01 
3.000000e-02  6.330394670989464e-01 
3.500000e-02  4.796207477449325e-01 
4.000000e-02  3.273958312025579e-01 
4.500000e-02  1.919241589603519e-01 
5.000000e-02  8.713144057173078e-02 
5.500000e-02  2.359894953760253e-02 
6.000000e-02  4.748283957840277e-03 
6.500000e-02  4.670335711921218e-03 
7.000000e-02  5.640859468205353e-03 
7.500000e-02  2.794223300756362e-02 
8.000000e-02  8.936481264813928e-02 
8.500000e-02  1.854123683342825e-01 
9.000000e-02  3.066976652111151e-01 
9.500000e-02  4.415995678697524e-01 
1.000000e-01  5.776207486073951e-01 
1.050000e-01  7.027653747210769e-01 
1.100000e-01  8.068440091265253e-01 
1.150000e-01  8.824980404861705e-01 
1.200000e-01  9.257210558645699e-01 
1.250000e-01  9.357155871630942e-01 
1.300000e-01  9.141178259576753e-01 
1.350000e-01  8.643301009782061e-01 
1.400000e-01  7.914606201174004e-01 
1.450000e-01  7.021321033820436e-01 
1.500000e-01  6.039732277911043e-01 
1.550000e-01  5.049445098776615e-01 
1.600000e-01  4.126132258139542e-01 
1.650000e-01  3.334861417964734e-01 
1.700000e-01  2.725011708741770e-01 
1.750000e-01  2.327471031181231e-01 
1.800000e-01  2.154239159772690e-01 
1.850000e-01  2.199919425494721e-01 
1.900000e-01  2.444215289491299e-01 
1.950000e-01  2.854760832076738e-01 
2.000000e-01  3.390169035733908e-01 
2.050000e-01  4.003442957111575e-01 
2.100000e-01  4.645728354534338e-01 
2.150000e-01  5.270131125744382e-01 
2.200000e-01  5.835190237404984e-01 
2.250000e-01  6.307607104348600e-01 
2.300000e-01  6.663954529909462e-01 
2.350000e-01  6.891278195876650e-01 
2.400000e-01  6.986701351020658e-01 
2.450000e-01  6.956283328398654e-01 
2.500000e-01  6.813421877439098e-01 
2.550000e-01  6.577037072693552e-01 
2.600000e-01  6.269689861555453e-01 
2.650000e-01  5.915731360258171e-01 
2.700000e-01  5.539564625231289e-01 
2.750000e-01  5.164105827473369e-01 
2.800000e-01  4.809530798589409e-01 
2.850000e-01  4.492374800888998e-01 
2.900000e-01  4.225019697731928e-01 
2.950000e-01  4.015561111289074e-01 
3.000000e-01  3.868007850916683e-01 
3.050000e-01  3.782734994915595e-01 
3.100000e-01  3.757095868941931e-01 
3.150000e-01  3.786098398132638e-01 
3.200000e-01  3.863065703758023e-01 
3.250000e-01  3.980224350660779e-01 
3.300000e-01  4.129190299201340e-01 
3.350000e-01  4.301347046481412e-01 
3.400000e-01  4.488128989092482e-01 
3.450000e-01  4.681233915929254e-01 
3.500000e-01  4.872791685668775e-01 
3.550000e-01  5.055512914127270e-01 
3.600000e-01  5.222834166786686e-01 
3.650000e-01  5.369067257639293e-01 
3.700000e-01  5.489551933337217e-01 
3.750000e-01  5.580804762160043e-01 
3.800000e-01  5.640652805450499e-01 
3.850000e-01  5.668338305108130e-01 
3.900000e-01  5.664579655085414e-01 
3.950000e-01  5.631574082945127e-01 
4.000000e-01  5.572928979136456e-01 
4.050000e-01  5.493512238535372e-01 
4.100000e-01  5.399217768942248e-01 
4.150000e-01  5.296650336935398e-01 
4.200000e-01  5.192743236181994e-01 
4.250000e-01  5.094331352176603e-01 
4.300000e-01  5.007709408781013e-01 
4.350000e-01  4.938209240120714e-01 
4.400000e-01  4.889830248772638e-01 
4.450000e-01  4.864953920126588e-01 
4.500000e-01  4.864167015079813e-01 
4.550000e-01  4.886209731939190e-01 
4.600000e-01  4.928055563681766e-01 
4.650000e-01  4.985119512287619e-01 
4.700000e-01  5.051581427973160e-01 
4.750000e-01  5.120802225374259e-01 
4.800000e-01  5.185803362840611e-01 
4.850000e-01  5.239774987220845e-01 
4.900000e-01  5.276576049202786e-01 
4.950000e-01  5.291190600775462e-01 
5.000000e-01  5.280108100884072e-01 
5.050000e-01  5.241601303498046e-01 
5.100000e-01  5.175882556980873e-01 
5.150000e-01  5.085127609681075e-01 
5.200000e-01  4.973364959547454e-01 
5.250000e-01  4.846238088866444e-01 
5.300000e-01  4.710657083999371e-01 
5.350000e-01  4.574364353026346e-01 
5.400000e-01  4.445445421506088e-01 
5.450000e-01  4.331819194415820e-01 
5.500000e-01  4.240742139805768e-01 
5.550000e-01  4.178357773100315e-01 
5.600000e-01  4.149317484329469e-01 
5.650000e-01  4.156492451148181e-01 
5.700000e-01  4.200790336977411e-01 
5.750000e-01  4.281085316723239e-01 
5.800000e-01  4.394265491449729e-01 
5.850000e-01  4.535397088255539e-01 
5.900000e-01  4.697999064028617e-01 
5.950000e-01  4.874414495531036e-01 
6.000000e-01  5.056257028290269e-01 
6.050000e-01  5.234903062047455e-01 
6.100000e-01  5.401994965763602e-01 
6.150000e-01  5.549918830867808e-01 
6.200000e-01  5.672222695717453e-01 
6.250000e-01  5.763947429265605e-01 
6.300000e-01  5.821851298799041e-01 
6.350000e-01  5.844518946010618e-01 
6.400000e-01  5.832354436620355e-01 
6.450000e-01  5.787465236976187e-01 
6.500000e-01  5.713449285503287e-01 
6.550000e-01  5.615101347670428e-01 
6.600000e-01  5.498058350792338e-01 
6.650000e-01  5.368406828478256e-01 
6.700000e-01  5.232278775091090e-01 
6.750000e-01  5.095464384811559e-01 
6.800000e-01  4.963070397464257e-01 
6.850000e-01  4.839250369695262e-01 
6.900000e-01  4.727027899622294e-01 
6.950000e-01  4.628225996464620e-01 
7.000000e-01  4.543506230100759e-01 
7.050000e-01  4.472511127845091e-01 
7.100000e-01  4.414093665356288e-01 
7.150000e-01  4.366609639313526e-01 
7.200000e-01  4.328242965167048e-01 
7.250000e-01  4.297330973713225e-01 
7.300000e-01  4.272656771930434e-01 
7.350000e-01  4.253678638576615e-01 
7.400000e-01  4.240671993053892e-01 
7.450000e-01  4.234767273248925e-01 
7.500000e-01  4.237876485182754e-01 
7.550000e-01  4.252511510757671e-01 
7.600000e-01  4.281507663045724e-01 
7.650000e-01  4.327675625054115e-01 
7.700000e-01  4.393412997181634e-01 
7.750000e-01  4.480312475669996e-01 
7.800000e-01  4.588806526014569e-01 
7.850000e-01  4.717887726132615e-01 
7.900000e-01  4.864939323768024e-01 
7.950000e-01  5.025701901524231e-01 
8.000000e-01  5.194389835242545e-01 
8.050000e-01  5.363956622442848e-01 
8.100000e-01  5.526492945990270e-01 
8.150000e-01  5.673727662626781e-01 
8.200000e-01  5.797591740326039e-01 
8.250000e-01  5.890799772771571e-01 
8.300000e-01  5.947403231913750e-01 
8.350000e-01  5.963273106542835e-01 
8.400000e-01  5.936475355702368e-01 
8.450000e-01  5.867509176581357e-01 
8.500000e-01  5.759384957405123e-01 
8.550000e-01  5.617526772106903e-01 
8.600000e-01  5.449494859244554e-01 
8.650000e-01  5.264537591624480e-01 
8.700000e-01  5.072999193690628e-01 
8.750000e-01  4.885626318035877e-01 
8.800000e-01  4.712830053553705e-01 
8.850000e-01  4.563966911413161e-01 
8.900000e-01  4.446701221479797e-01 
8.950000e-01  4.366502538781063e-01 
9.000000e-01  4.326317202668493e-01 
9.050000e-01  4.326436096164996e-01 
9.100000e-01  4.364563671998444e-01 
9.150000e-01  4.436078062416440e-01 
9.200000e-01  4.534458868589761e-01 
9.250000e-01  4.651847631425614e-01 
9.300000e-01  4.779695878609165e-01 
9.350000e-01  4.909447734582863e-01 
9.400000e-01  5.033199797056267e-01 
9.450000e-01  5.144281787226046e-01 
9.500000e-01  5.237708128956785e-01 
9.550000e-01  5.310462748757991e-01 
9.600000e-01  5.361595592486438e-01 
9.650000e-01  5.392127548878900e-01 
9.700000e-01  5.404778466999471e-01 
9.750000e-01  5.403548904218343e-01 
9.800000e-01  5.393198829610985e-01 
9.850000e-01  5.378674917811491e-01 
9.900000e-01  5.364541837694597e-01 
9.950000e-01  5.354471864220551e-01 
1.000000e+00  5.350841286253355e-01 
