TITLE ="t=0.000379" 
VARIABLES = "x"                 "phi" 
ZONE I=201, ZONETYPE=Ordered, DATAPACKING=POINT
0.000000e+00  8.583894456857558e-01 
5.000000e-03  6.317648845993108e-01 
1.000000e-02  4.564122605216131e-01 
1.500000e-02  4.057816531274286e-01 
2.000000e-02  4.206249701088883e-01 
2.500000e-02  4.609128040883803e-01 
3.000000e-02  4.991046885164199e-01 
3.500000e-02  5.208984770643011e-01 
4.000000e-02  5.253459948992512e-01 
4.500000e-02  5.181638998026998e-01 
5.000000e-02  5.060104109176692e-01 
5.500000e-02  4.938104855983295e-01 
6.000000e-02  4.846114073473344e-01 
6.500000e-02  4.803864643884506e-01 
7.000000e-02  4.823442751432496e-01 
7.500000e-02  4.904423585033492e-01 
8.000000e-02  5.027991117811353e-01 
8.500000e-02  5.158565494730590e-01 
9.000000e-02  5.255339239512711e-01 
9.500000e-02  5.288388139657747e-01 
1.000000e-01  5.250661634068962e-01 
1.050000e-01  5.159787575367738e-01 
1.100000e-01  5.049598401346296e-01 
1.150000e-01  4.956292307607220e-01 
1.200000e-01  4.905508877965310e-01 
1.250000e-01  4.904794870072312e-01 
1.300000e-01  4.943044615976503e-01 
1.350000e-01  4.996103367604613e-01 
1.400000e-01  5.036263012507797e-01 
1.450000e-01  5.042608329902744e-01 
1.500000e-01  5.008885023685847e-01 
1.550000e-01  4.946024104254330e-01 
1.600000e-01  4.878064088492687e-01 
1.650000e-01  4.832730529308669e-01 
1.700000e-01  4.830307314642003e-01 
1.750000e-01  4.875412653737810e-01 
1.800000e-01  4.955200487068622e-01 
1.850000e-01  5.044713776840205e-01 
1.900000e-01  5.116960877125565e-01 
1.950000e-01  5.153302266412871e-01 
2.000000e-01  5.149763009862049e-01 
2.050000e-01  5.116838249397158e-01 
2.100000e-01  5.073371161687849e-01 
2.150000e-01  5.037766516442794e-01 
2.200000e-01  5.020830844941616e-01 
2.250000e-01  5.023363703642830e-01 
2.300000e-01  5.038864224563880e-01 
2.350000e-01  5.058903047734383e-01 
2.400000e-01  5.077539247732981e-01 
2.450000e-01  5.092376042720700e-01 
2.500000e-01  5.102579503433067e-01 
2.550000e-01  5.106431524361894e-01 
2.600000e-01  5.101054064435686e-01 
2.650000e-01  5.084792180200829e-01 
2.700000e-01  5.060142091575326e-01 
2.750000e-01  5.034259415324479e-01 
2.800000e-01  5.015792009304212e-01 
2.850000e-01  5.009722502061632e-01 
2.900000e-01  5.013676430254653e-01 
2.950000e-01  5.018300361669634e-01 
3.000000e-01  5.011557584314493e-01 
3.050000e-01  4.984355614458994e-01 
3.100000e-01  4.934586854763016e-01 
3.150000e-01  4.868274740173126e-01 
3.200000e-01  4.798329252763482e-01 
3.250000e-01  4.741886579443161e-01 
3.300000e-01  4.716474677127160e-01 
3.350000e-01  4.734830643035814e-01 
3.400000e-01  4.799235567809568e-01 
3.450000e-01  4.898025146049537e-01 
3.500000e-01  5.007379771630160e-01 
3.550000e-01  5.099241091580634e-01 
3.600000e-01  5.152316829390580e-01 
3.650000e-01  5.160492826791521e-01 
3.700000e-01  5.133917935122027e-01 
3.750000e-01  5.092344058729745e-01 
3.800000e-01  5.055022807880489e-01 
3.850000e-01  5.033121334058598e-01 
3.900000e-01  5.028175962328749e-01 
3.950000e-01  5.035673240184494e-01 
4.000000e-01  5.049841988777257e-01 
4.050000e-01  5.066127625283796e-01 
4.100000e-01  5.080737109988929e-01 
4.150000e-01  5.089366788760553e-01 
4.200000e-01  5.087561011072286e-01 
4.250000e-01  5.073138648217186e-01 
4.300000e-01  5.048760563739622e-01 
4.350000e-01  5.022103039969092e-01 
4.400000e-01  5.002737580296680e-01 
4.450000e-01  4.997309261702223e-01 
4.500000e-01  5.005968278323355e-01 
4.550000e-01  5.022263331180126e-01 
4.600000e-01  5.036513357429846e-01 
4.650000e-01  5.040652631345115e-01 
4.700000e-01  5.031959126270710e-01 
4.750000e-01  5.014010537644339e-01 
4.800000e-01  4.994771992757294e-01 
4.850000e-01  4.982905766411669e-01 
4.900000e-01  4.983819003385387e-01 
4.950000e-01  4.996863686306521e-01 
5.000000e-01  5.014793580329948e-01 
5.050000e-01  5.026048573921492e-01 
5.100000e-01  5.019466386908419e-01 
5.150000e-01  4.989723910745499e-01 
5.200000e-01  4.940884867469176e-01 
5.250000e-01  4.885776592487842e-01 
5.300000e-01  4.840811475544143e-01 
5.350000e-01  4.818455048785486e-01 
5.400000e-01  4.821234411664941e-01 
5.450000e-01  4.840712586155371e-01 
5.500000e-01  4.862249139008782e-01 
5.550000e-01  4.873087931204541e-01 
5.600000e-01  4.869351845506508e-01 
5.650000e-01  4.858071489349630e-01 
5.700000e-01  4.853099804115147e-01 
5.750000e-01  4.867104499451791e-01 
5.800000e-01  4.903951643677640e-01 
5.850000e-01  4.955598508769223e-01 
5.900000e-01  5.005252943398488e-01 
5.950000e-01  5.035287586073890e-01 
6.000000e-01  5.035904198821011e-01 
6.050000e-01  5.010096736776041e-01 
6.100000e-01  4.972338993845308e-01 
6.150000e-01  4.941715646799755e-01 
6.200000e-01  4.933159105625485e-01 
6.250000e-01  4.951358642138409e-01 
6.300000e-01  4.990198116571788e-01 
6.350000e-01  5.037259251351457e-01 
6.400000e-01  5.080091274525690e-01 
6.450000e-01  5.110422096198339e-01 
6.500000e-01  5.124511013119329e-01 
6.550000e-01  5.120858993121745e-01 
6.600000e-01  5.098251409495925e-01 
6.650000e-01  5.056337703899998e-01 
6.700000e-01  4.998344240876447e-01 
6.750000e-01  4.933207182451602e-01 
6.800000e-01  4.874318710889978e-01 
6.850000e-01  4.834402528631684e-01 
6.900000e-01  4.819103908197430e-01 
6.950000e-01  4.823406676474428e-01 
7.000000e-01  4.833716960936605e-01 
7.050000e-01  4.835067475168764e-01 
7.100000e-01  4.819584332167444e-01 
7.150000e-01  4.791300903332054e-01 
7.200000e-01  4.764331681730685e-01 
7.250000e-01  4.755206545613321e-01 
7.300000e-01  4.773561429440434e-01 
7.350000e-01  4.816368407901099e-01 
7.400000e-01  4.868872088439096e-01 
7.450000e-01  4.911596204996622e-01 
7.500000e-01  4.929498542970734e-01 
7.550000e-01  4.918473789114882e-01 
7.600000e-01  4.886242672329646e-01 
7.650000e-01  4.847904060891592e-01 
7.700000e-01  4.819052620233403e-01 
7.750000e-01  4.809988338220598e-01 
7.800000e-01  4.823210735738518e-01 
7.850000e-01  4.854309002062322e-01 
7.900000e-01  4.894888600474632e-01 
7.950000e-01  4.935903377575415e-01 
8.000000e-01  4.970325006190877e-01 
8.050000e-01  4.994736494611646e-01 
8.100000e-01  5.009772010997228e-01 
8.150000e-01  5.019452283072873e-01 
8.200000e-01  5.029651650318819e-01 
8.250000e-01  5.046187243147621e-01 
8.300000e-01  5.073088122595469e-01 
8.350000e-01  5.111340817240925e-01 
8.400000e-01  5.158065381805613e-01 
8.450000e-01  5.206087742562677e-01 
8.500000e-01  5.244337130386654e-01 
8.550000e-01  5.259898658803676e-01 
8.600000e-01  5.242143423095985e-01 
8.650000e-01  5.187950549440399e-01 
8.700000e-01  5.105465604271473e-01 
8.750000e-01  5.013530976813402e-01 
8.800000e-01  4.935689396332881e-01 
8.850000e-01  4.890791023028091e-01 
8.900000e-01  4.884788596631737e-01 
8.950000e-01  4.908391373408897e-01 
9.000000e-01  4.942370747928339e-01 
9.050000e-01  4.967969572714631e-01 
9.100000e-01  4.976750404396555e-01 
9.150000e-01  4.974365595576233e-01 
9.200000e-01  4.976168169575751e-01 
9.250000e-01  4.997298513512126e-01 
9.300000e-01  5.043058930791108e-01 
9.350000e-01  5.105130146083234e-01 
9.400000e-01  5.165671244883608e-01 
9.450000e-01  5.206708032114726e-01 
9.500000e-01  5.219217787948295e-01 
9.550000e-01  5.206697883300808e-01 
9.600000e-01  5.181494035535367e-01 
9.650000e-01  5.156610123486230e-01 
9.700000e-01  5.138340746471844e-01 
9.750000e-01  5.124238865873181e-01 
9.800000e-01  5.107256492498371e-01 
9.850000e-01  5.082799421514096e-01 
9.900000e-01  5.053614341744085e-01 
9.950000e-01  5.029078140877673e-01 
1.000000e+00  5.019435572906579e-01 
