TITLE ="t=0.000145" 
VARIABLES = "x"                 "phi" 
ZONE I=201, ZONETYPE=Ordered, DATAPACKING=POINT
0.000000e+00  7.779700401867626e-01 
5.000000e-03  5.635948007692542e-01 
1.000000e-02  4.379921037220282e-01 
1.500000e-02  4.367869807157971e-01 
2.000000e-02  4.738721774044450e-01 
2.500000e-02  5.058271600317604e-01 
3.000000e-02  5.179664824094257e-01 
3.500000e-02  5.163568215579836e-01 
4.000000e-02  5.126027234923767e-01 
4.500000e-02  5.111300668648161e-01 
5.000000e-02  5.085404168860066e-01 
5.500000e-02  5.003961141713523e-01 
6.000000e-02  4.874564133573090e-01 
6.500000e-02  4.761879604348847e-01 
7.000000e-02  4.740494806025307e-01 
7.500000e-02  4.839565651573479e-01 
8.000000e-02  5.021867425940488e-01 
8.500000e-02  5.208206616150864e-01 
9.000000e-02  5.324538047021796e-01 
9.500000e-02  5.338203105261945e-01 
1.000000e-01  5.263822780745145e-01 
1.050000e-01  5.143488757389927e-01 
1.100000e-01  5.021122866486282e-01 
1.150000e-01  4.927710749547832e-01 
1.200000e-01  4.879794112022845e-01 
1.250000e-01  4.882680611679849e-01 
1.300000e-01  4.930297078772396e-01 
1.350000e-01  5.002226706319527e-01 
1.400000e-01  5.065384854411202e-01 
1.450000e-01  5.085725235815087e-01 
1.500000e-01  5.046021696591125e-01 
1.550000e-01  4.958010913306585e-01 
1.600000e-01  4.858928826178288e-01 
1.650000e-01  4.793135904918519e-01 
1.700000e-01  4.790131542720012e-01 
1.750000e-01  4.852033623134822e-01 
1.800000e-01  4.955885116547417e-01 
1.850000e-01  5.066257132646159e-01 
1.900000e-01  5.149577951573037e-01 
1.950000e-01  5.184554958639772e-01 
2.000000e-01  5.167566109396168e-01 
2.050000e-01  5.113226378423005e-01 
2.100000e-01  5.049214921057097e-01 
2.150000e-01  5.004966103368663e-01 
2.200000e-01  4.997745140637996e-01 
2.250000e-01  5.023771551994922e-01 
2.300000e-01  5.061354538777552e-01 
2.350000e-01  5.085859097157562e-01 
2.400000e-01  5.087103177167125e-01 
2.450000e-01  5.076042974573203e-01 
2.500000e-01  5.074099633712001e-01 
2.550000e-01  5.092264112930739e-01 
2.600000e-01  5.117645730336231e-01 
2.650000e-01  5.121614962189824e-01 
2.700000e-01  5.085690974068577e-01 
2.750000e-01  5.022940739510316e-01 
2.800000e-01  4.972618627847274e-01 
2.850000e-01  4.968472468995824e-01 
2.900000e-01  5.007566727231447e-01 
2.950000e-01  5.049690206002768e-01 
3.000000e-01  5.050423491425656e-01 
3.050000e-01  4.998075694460651e-01 
3.100000e-01  4.919721443140826e-01 
3.150000e-01  4.851835985153397e-01 
3.200000e-01  4.806770785617639e-01 
3.250000e-01  4.770042014934581e-01 
3.300000e-01  4.730103733977269e-01 
3.350000e-01  4.706257838742743e-01 
3.400000e-01  4.740311274780911e-01 
3.450000e-01  4.855194732522723e-01 
3.500000e-01  5.020793338813906e-01 
3.550000e-01  5.164363969420834e-01 
3.600000e-01  5.221282856533940e-01 
3.650000e-01  5.182788972939822e-01 
3.700000e-01  5.098771229188569e-01 
3.750000e-01  5.034504864714131e-01 
3.800000e-01  5.021196321566138e-01 
3.850000e-01  5.042133046830659e-01 
3.900000e-01  5.060332306654775e-01 
3.950000e-01  5.056482965953787e-01 
4.000000e-01  5.042062823676791e-01 
4.050000e-01  5.041067981133062e-01 
4.100000e-01  5.063296071792102e-01 
4.150000e-01  5.094990790078785e-01 
4.200000e-01  5.111662495562106e-01 
4.250000e-01  5.097869370968521e-01 
4.300000e-01  5.057375619198775e-01 
4.350000e-01  5.009420174117423e-01 
4.400000e-01  4.977032704659606e-01 
4.450000e-01  4.974649162569450e-01 
4.500000e-01  5.000141918655207e-01 
4.550000e-01  5.035566107669051e-01 
4.600000e-01  5.058174244940264e-01 
4.650000e-01  5.055617245566264e-01 
4.700000e-01  5.033293489075551e-01 
4.750000e-01  5.007090717179753e-01 
4.800000e-01  4.988899090876456e-01 
4.850000e-01  4.979830140006536e-01 
4.900000e-01  4.976804394303935e-01 
4.950000e-01  4.981873584109912e-01 
5.000000e-01  5.000240488743847e-01 
5.050000e-01  5.027753203727207e-01 
5.100000e-01  5.044135749479998e-01 
5.150000e-01  5.024496046526573e-01 
5.200000e-01  4.961399370602951e-01 
5.250000e-01  4.876086242939126e-01 
5.300000e-01  4.806473307071611e-01 
5.350000e-01  4.781648866400832e-01 
5.400000e-01  4.804078034613771e-01 
5.450000e-01  4.851549062599181e-01 
5.500000e-01  4.893381621265820e-01 
5.550000e-01  4.907487529708012e-01 
5.600000e-01  4.889774146534018e-01 
5.650000e-01  4.854669002653925e-01 
5.700000e-01  4.827887583422347e-01 
5.750000e-01  4.833250177102577e-01 
5.800000e-01  4.878972245087965e-01 
5.850000e-01  4.951911252996113e-01 
5.900000e-01  5.024254990668472e-01 
5.950000e-01  5.067966555099610e-01 
6.000000e-01  5.067537779025691e-01 
6.050000e-01  5.025635344496286e-01 
6.100000e-01  4.962318010888206e-01 
6.150000e-01  4.908909069722539e-01 
6.200000e-01  4.895210369701511e-01 
6.250000e-01  4.932412674247947e-01 
6.300000e-01  5.003068835187728e-01 
6.350000e-01  5.070534003593715e-01 
6.400000e-01  5.105157947940249e-01 
6.450000e-01  5.105883781759212e-01 
6.500000e-01  5.096164893527317e-01 
6.550000e-01  5.096866034130549e-01 
6.600000e-01  5.102853644936566e-01 
6.650000e-01  5.087305759035599e-01 
6.700000e-01  5.029597134523607e-01 
6.750000e-01  4.938672471084162e-01 
6.800000e-01  4.849345006140882e-01 
6.850000e-01  4.796561871587904e-01 
6.900000e-01  4.792077947215900e-01 
6.950000e-01  4.821181370215292e-01 
7.000000e-01  4.856051728555758e-01 
7.050000e-01  4.871219588273639e-01 
7.100000e-01  4.853012556103609e-01 
7.150000e-01  4.804590156702567e-01 
7.200000e-01  4.747545225130446e-01 
7.250000e-01  4.714922516844218e-01 
7.300000e-01  4.732934139119052e-01 
7.350000e-01  4.801186251106683e-01 
7.400000e-01  4.888621900178264e-01 
7.450000e-01  4.952012364582277e-01 
7.500000e-01  4.963874141630655e-01 
7.550000e-01  4.927903768971352e-01 
7.600000e-01  4.871507717239323e-01 
7.650000e-01  4.824673824424222e-01 
7.700000e-01  4.803228430082918e-01 
7.750000e-01  4.806651133142311e-01 
7.800000e-01  4.826770789770520e-01 
7.850000e-01  4.856905888758974e-01 
7.900000e-01  4.894362031133812e-01 
7.950000e-01  4.936719688724475e-01 
8.000000e-01  4.977527660377905e-01 
8.050000e-01  5.007083319144189e-01 
8.100000e-01  5.019181750165539e-01 
8.150000e-01  5.018190854655972e-01 
8.200000e-01  5.018528267195214e-01 
8.250000e-01  5.034668348354203e-01 
8.300000e-01  5.069838071329641e-01 
8.350000e-01  5.114594806285994e-01 
8.400000e-01  5.157083340630537e-01 
8.450000e-01  5.193781973002092e-01 
8.500000e-01  5.228064262583358e-01 
8.550000e-01  5.257439649398756e-01 
8.600000e-01  5.264676000853014e-01 
8.650000e-01  5.226234146210718e-01 
8.700000e-01  5.133772621403799e-01 
8.750000e-01  5.009208554485478e-01 
8.800000e-01  4.897548510002656e-01 
8.850000e-01  4.840988522449558e-01 
8.900000e-01  4.853569905838365e-01 
8.950000e-01  4.914285767279566e-01 
9.000000e-01  4.981577249180886e-01 
9.050000e-01  5.017934375633277e-01 
9.100000e-01  5.009726359703696e-01 
9.150000e-01  4.972764071098768e-01 
9.200000e-01  4.942014136527182e-01 
9.250000e-01  4.950989488816467e-01 
9.300000e-01  5.011623611187924e-01 
9.350000e-01  5.106323924073323e-01 
9.400000e-01  5.197560463437502e-01 
9.450000e-01  5.249273616479286e-01 
9.500000e-01  5.246689561066799e-01 
9.550000e-01  5.202830518119341e-01 
9.600000e-01  5.149065099261645e-01 
9.650000e-01  5.116130840746916e-01 
9.700000e-01  5.116188317872192e-01 
9.750000e-01  5.135816230619404e-01 
9.800000e-01  5.145280293399124e-01 
9.850000e-01  5.120373859235048e-01 
9.900000e-01  5.062760814293078e-01 
9.950000e-01  5.002253169723362e-01 
1.000000e+00  4.976437783567912e-01 
