TITLE ="t=0.002207" 
VARIABLES = "x"                 "phi" 
ZONE I=201, ZONETYPE=Ordered, DATAPACKING=POINT
0.000000e+00  1.005413014738977e+00 
5.000000e-03  7.986662961474545e-01 
1.000000e-02  5.960788696072774e-01 
1.500000e-02  4.606653835304104e-01 
2.000000e-02  3.822148931346248e-01 
2.500000e-02  3.539688210641689e-01 
3.000000e-02  3.650195557082203e-01 
3.500000e-02  3.991389608748677e-01 
4.000000e-02  4.405094444317825e-01 
4.500000e-02  4.772605211083802e-01 
5.000000e-02  5.027572887555471e-01 
5.500000e-02  5.154800166830059e-01 
6.000000e-02  5.177715720586783e-01 
6.500000e-02  5.139564471381040e-01 
7.000000e-02  5.084807190983189e-01 
7.500000e-02  5.045754212135961e-01 
8.000000e-02  5.036721916333664e-01 
8.500000e-02  5.055306753511939e-01 
9.000000e-02  5.088415263958482e-01 
9.500000e-02  5.119887237271743e-01 
1.000000e-01  5.136921374592527e-01 
1.050000e-01  5.133637089138889e-01 
1.100000e-01  5.111423690272686e-01 
1.150000e-01  5.076807874410616e-01 
1.200000e-01  5.038165570952552e-01 
1.250000e-01  5.002650391065179e-01 
1.300000e-01  4.974316714177714e-01 
1.350000e-01  4.953800465227992e-01 
1.400000e-01  4.939321332461336e-01 
1.450000e-01  4.928366647928827e-01 
1.500000e-01  4.919297047460413e-01 
1.550000e-01  4.912266425732030e-01 
1.600000e-01  4.909183005416640e-01 
1.650000e-01  4.912821588771850e-01 
1.700000e-01  4.925498153679415e-01 
1.750000e-01  4.947846428537876e-01 
1.800000e-01  4.978165668146513e-01 
1.850000e-01  5.012580407865808e-01 
1.900000e-01  5.045956400916140e-01 
1.950000e-01  5.073257762803569e-01 
2.000000e-01  5.090892976765323e-01 
2.050000e-01  5.097619117004332e-01 
2.100000e-01  5.094736689142063e-01 
2.150000e-01  5.085548955704630e-01 
2.200000e-01  5.074294620810602e-01 
2.250000e-01  5.064914184463557e-01 
2.300000e-01  5.060034550793157e-01 
2.350000e-01  5.060455374126362e-01 
2.400000e-01  5.065236554115216e-01 
2.450000e-01  5.072285095582584e-01 
2.500000e-01  5.079187792804536e-01 
2.550000e-01  5.083979972673249e-01 
2.600000e-01  5.085592192685612e-01 
2.650000e-01  5.083853165880331e-01 
2.700000e-01  5.079098779052764e-01 
2.750000e-01  5.071584736913914e-01 
2.800000e-01  5.060974281089116e-01 
2.850000e-01  5.046147690698489e-01 
2.900000e-01  5.025464494021641e-01 
2.950000e-01  4.997440268020056e-01 
3.000000e-01  4.961633890070322e-01 
3.050000e-01  4.919435441256712e-01 
3.100000e-01  4.874439313314612e-01 
3.150000e-01  4.832189603866051e-01 
3.200000e-01  4.799268296847386e-01 
3.250000e-01  4.781906130313532e-01 
3.300000e-01  4.784465661146938e-01 
3.350000e-01  4.808218862267660e-01 
3.400000e-01  4.850787575795872e-01 
3.450000e-01  4.906443765427365e-01 
3.500000e-01  4.967227564413301e-01 
3.550000e-01  5.024608935961955e-01 
3.600000e-01  5.071265254971730e-01 
3.650000e-01  5.102517677467354e-01 
3.700000e-01  5.117070899771868e-01 
3.750000e-01  5.116902376779074e-01 
3.800000e-01  5.106386792472665e-01 
3.850000e-01  5.090946026838457e-01 
3.900000e-01  5.075623118830187e-01 
3.950000e-01  5.063963450672523e-01 
4.000000e-01  5.057461124424211e-01 
4.050000e-01  5.055640007969016e-01 
4.100000e-01  5.056649795463387e-01 
4.150000e-01  5.058125445649977e-01 
4.200000e-01  5.058018442065436e-01 
4.250000e-01  5.055162761141686e-01 
4.300000e-01  5.049458737900375e-01 
4.350000e-01  5.041697010935372e-01 
4.400000e-01  5.033154132490139e-01 
4.450000e-01  5.025138530501421e-01 
4.500000e-01  5.018643129860850e-01 
4.550000e-01  5.014187517434673e-01 
4.600000e-01  5.011842902364567e-01 
4.650000e-01  5.011363992502336e-01 
4.700000e-01  5.012327748241237e-01 
4.750000e-01  5.014203553489462e-01 
4.800000e-01  5.016335911094225e-01 
4.850000e-01  5.017880443891292e-01 
4.900000e-01  5.017768630442202e-01 
4.950000e-01  5.014770902792793e-01 
5.000000e-01  5.007684869117697e-01 
5.050000e-01  4.995615539365000e-01 
5.100000e-01  4.978264931806925e-01 
5.150000e-01  4.956131805840249e-01 
5.200000e-01  4.930546187798125e-01 
5.250000e-01  4.903517585592823e-01 
5.300000e-01  4.877437087342237e-01 
5.350000e-01  4.854716375842490e-01 
5.400000e-01  4.837454734441504e-01 
5.450000e-01  4.827198302155504e-01 
5.500000e-01  4.824809842739783e-01 
5.550000e-01  4.830425773675910e-01 
5.600000e-01  4.843460236038519e-01 
5.650000e-01  4.862630160225352e-01 
5.700000e-01  4.886010199409070e-01 
5.750000e-01  4.911159554780566e-01 
5.800000e-01  4.935370607607609e-01 
5.850000e-01  4.956059578761846e-01 
5.900000e-01  4.971258412283099e-01 
5.950000e-01  4.980098589038590e-01 
6.000000e-01  4.983133845372338e-01 
6.050000e-01  4.982356533967624e-01 
6.100000e-01  4.980830138385169e-01 
6.150000e-01  4.981972573710057e-01 
6.200000e-01  4.988645393027845e-01 
6.250000e-01  5.002289170589422e-01 
6.300000e-01  5.022360192455851e-01 
6.350000e-01  5.046255970461581e-01 
6.400000e-01  5.069783704463415e-01 
6.450000e-01  5.088067605916085e-01 
6.500000e-01  5.096659176870529e-01 
6.550000e-01  5.092552712551101e-01 
6.600000e-01  5.074837421541230e-01 
6.650000e-01  5.044828553753610e-01 
6.700000e-01  5.005676164520235e-01 
6.750000e-01  4.961599778668822e-01 
6.800000e-01  4.916991669280043e-01 
6.850000e-01  4.875642701274381e-01 
6.900000e-01  4.840274262663809e-01 
6.950000e-01  4.812436973633553e-01 
7.000000e-01  4.792707544229789e-01 
7.050000e-01  4.781025580063107e-01 
7.100000e-01  4.776992276919934e-01 
7.150000e-01  4.780005539041703e-01 
7.200000e-01  4.789205886344219e-01 
7.250000e-01  4.803311558170755e-01 
7.300000e-01  4.820485735527938e-01 
7.350000e-01  4.838376648463921e-01 
7.400000e-01  4.854402717106522e-01 
7.450000e-01  4.866247283414915e-01 
7.500000e-01  4.872424834773802e-01 
7.550000e-01  4.872725921414267e-01 
7.600000e-01  4.868366389800297e-01 
7.650000e-01  4.861755195488454e-01 
7.700000e-01  4.855923397398197e-01 
7.750000e-01  4.853777890761314e-01 
7.800000e-01  4.857410992821747e-01 
7.850000e-01  4.867683700640330e-01 
7.900000e-01  4.884208254954313e-01 
7.950000e-01  4.905716066944084e-01 
8.000000e-01  4.930660127290863e-01 
8.050000e-01  4.957816946818486e-01 
8.100000e-01  4.986653651457696e-01 
8.150000e-01  5.017312596912046e-01 
8.200000e-01  5.050209230226920e-01 
8.250000e-01  5.085388438251187e-01 
8.300000e-01  5.121886527695656e-01 
8.350000e-01  5.157362339388278e-01 
8.400000e-01  5.188183472280512e-01 
8.450000e-01  5.210006726906212e-01 
8.500000e-01  5.218724688125662e-01 
8.550000e-01  5.211519546739780e-01 
8.600000e-01  5.187715995560548e-01 
8.650000e-01  5.149175388103308e-01 
8.700000e-01  5.100107130607600e-01 
8.750000e-01  5.046345024906130e-01 
8.800000e-01  4.994288007343451e-01 
8.850000e-01  4.949787762840581e-01 
8.900000e-01  4.917257527142412e-01 
8.950000e-01  4.899186304937375e-01 
9.000000e-01  4.896106306250437e-01 
9.050000e-01  4.906927189132194e-01 
9.100000e-01  4.929462971849067e-01 
9.150000e-01  4.960960511362775e-01 
9.200000e-01  4.998488679115407e-01 
9.250000e-01  5.039137073031976e-01 
9.300000e-01  5.080063375852167e-01 
9.350000e-01  5.118485192857516e-01 
9.400000e-01  5.151718353254211e-01 
9.450000e-01  5.177323698086520e-01 
9.500000e-01  5.193360045921493e-01 
9.550000e-01  5.198681079495977e-01 
9.600000e-01  5.193182250065136e-01 
9.650000e-01  5.177910752369276e-01 
9.700000e-01  5.154991249094411e-01 
9.750000e-01  5.127374237637663e-01 
9.800000e-01  5.098461132977687e-01 
9.850000e-01  5.071684269850227e-01 
9.900000e-01  5.050116415348069e-01 
9.950000e-01  5.036159964575145e-01 
1.000000e+00  5.031334791440553e-01 
