TITLE ="t=0.001855" 
VARIABLES = "x"                 "phi" 
ZONE I=201, ZONETYPE=Ordered, DATAPACKING=POINT
0.000000e+00  1.005698443724372e+00 
5.000000e-03  7.878284571083658e-01 
1.000000e-02  5.768630508092721e-01 
1.500000e-02  4.436456434527459e-01 
2.000000e-02  3.735889676529187e-01 
2.500000e-02  3.561382259185744e-01 
3.000000e-02  3.768079199405068e-01 
3.500000e-02  4.165735383535594e-01 
4.000000e-02  4.585769362834485e-01 
4.500000e-02  4.916154754085789e-01 
5.000000e-02  5.108557816273598e-01 
5.500000e-02  5.169611906354397e-01 
6.000000e-02  5.141114532202210e-01 
6.500000e-02  5.076392289973934e-01 
7.000000e-02  5.020516543922990e-01 
7.500000e-02  4.999002059138998e-01 
8.000000e-02  5.015821534279085e-01 
8.500000e-02  5.058631690440619e-01 
9.000000e-02  5.107586108740545e-01 
9.500000e-02  5.144059084923354e-01 
1.000000e-01  5.156646057493138e-01 
1.050000e-01  5.143320277285387e-01 
1.100000e-01  5.110053543170761e-01 
1.150000e-01  5.067188450853394e-01 
1.200000e-01  5.025224221539406e-01 
1.250000e-01  4.991486586291863e-01 
1.300000e-01  4.968575736395080e-01 
1.350000e-01  4.954761113081835e-01 
1.400000e-01  4.945841115953467e-01 
1.450000e-01  4.937581197101394e-01 
1.500000e-01  4.927773199129895e-01 
1.550000e-01  4.917206487318606e-01 
1.600000e-01  4.909297095631537e-01 
1.650000e-01  4.908618491199434e-01 
1.700000e-01  4.918949482586637e-01 
1.750000e-01  4.941586597582419e-01 
1.800000e-01  4.974532278296234e-01 
1.850000e-01  5.012830854346408e-01 
1.900000e-01  5.049911836958642e-01 
1.950000e-01  5.079461595550726e-01 
2.000000e-01  5.097190029994412e-01 
2.050000e-01  5.101926969594953e-01 
2.100000e-01  5.095734855973937e-01 
2.150000e-01  5.083062572873781e-01 
2.200000e-01  5.069270635340490e-01 
2.250000e-01  5.059031460963503e-01 
2.300000e-01  5.055104676179476e-01 
2.350000e-01  5.057824025819722e-01 
2.400000e-01  5.065376679742727e-01 
2.450000e-01  5.074697227642376e-01 
2.500000e-01  5.082619306478032e-01 
2.550000e-01  5.086877381040348e-01 
2.600000e-01  5.086635584049989e-01 
2.650000e-01  5.082404291744959e-01 
2.700000e-01  5.075425213177165e-01 
2.750000e-01  5.066791288487477e-01 
2.800000e-01  5.056660438489561e-01 
2.850000e-01  5.043893025852786e-01 
2.900000e-01  5.026299724250497e-01 
2.950000e-01  5.001472606714206e-01 
3.000000e-01  4.967954833068167e-01 
3.050000e-01  4.926355421267665e-01 
3.100000e-01  4.879989797486714e-01 
3.150000e-01  4.834741810001458e-01 
3.200000e-01  4.798070583322697e-01 
3.250000e-01  4.777358716877271e-01 
3.300000e-01  4.778030577026355e-01 
3.350000e-01  4.801981660180666e-01 
3.400000e-01  4.846805915957012e-01 
3.450000e-01  4.906093855366857e-01 
3.500000e-01  4.970763739753452e-01 
3.550000e-01  5.031081707974276e-01 
3.600000e-01  5.078823459232394e-01 
3.650000e-01  5.108992577758803e-01 
3.700000e-01  5.120648050559103e-01 
3.750000e-01  5.116662049319504e-01 
3.800000e-01  5.102543539011967e-01 
3.850000e-01  5.084723362300707e-01 
3.900000e-01  5.068821893740505e-01 
3.950000e-01  5.058379644269418e-01 
4.000000e-01  5.054349052470332e-01 
4.050000e-01  5.055389894926924e-01 
4.100000e-01  5.058767071689877e-01 
4.150000e-01  5.061493434535514e-01 
4.200000e-01  5.061333230824666e-01 
4.250000e-01  5.057379644314147e-01 
4.300000e-01  5.050098088464353e-01 
4.350000e-01  5.040917820561908e-01 
4.400000e-01  5.031592207622457e-01 
4.450000e-01  5.023590853058256e-01 
4.500000e-01  5.017730126149166e-01 
4.550000e-01  5.014123941315390e-01 
4.600000e-01  5.012397828183253e-01 
4.650000e-01  5.012011475076414e-01 
4.700000e-01  5.012513293314818e-01 
4.750000e-01  5.013607791837248e-01 
4.800000e-01  5.015022878349189e-01 
4.850000e-01  5.016270530376649e-01 
4.900000e-01  5.016453129951424e-01 
4.950000e-01  5.014253363890542e-01 
5.000000e-01  5.008164777765123e-01 
5.050000e-01  4.996909117062913e-01 
5.100000e-01  4.979895256755089e-01 
5.150000e-01  4.957544014856448e-01 
5.200000e-01  4.931347673392348e-01 
5.250000e-01  4.903633315819649e-01 
5.300000e-01  4.877111044246314e-01 
5.350000e-01  4.854362923848673e-01 
5.400000e-01  4.837434769607033e-01 
5.450000e-01  4.827630959148455e-01 
5.500000e-01  4.825513938613289e-01 
5.550000e-01  4.831023034184034e-01 
5.600000e-01  4.843593277572993e-01 
5.650000e-01  4.862189345670514e-01 
5.700000e-01  4.885253263568650e-01 
5.750000e-01  4.910652575834694e-01 
5.800000e-01  4.935759440611842e-01 
5.850000e-01  4.957761416407035e-01 
5.900000e-01  4.974207205986785e-01 
5.950000e-01  4.983664830253287e-01 
6.000000e-01  4.986272681003135e-01 
6.050000e-01  4.983945409240887e-01 
6.100000e-01  4.980076531808181e-01 
6.150000e-01  4.978737405986767e-01 
6.200000e-01  4.983553137136515e-01 
6.250000e-01  4.996572056802259e-01 
6.300000e-01  5.017481825441831e-01 
6.350000e-01  5.043441910984092e-01 
6.400000e-01  5.069622446927254e-01 
6.450000e-01  5.090322093583763e-01 
6.500000e-01  5.100355531590486e-01 
6.550000e-01  5.096315825755676e-01 
6.600000e-01  5.077356835950152e-01 
6.650000e-01  5.045292953107043e-01 
6.700000e-01  5.004026615221224e-01 
6.750000e-01  4.958516431977049e-01 
6.800000e-01  4.913623189245493e-01 
6.850000e-01  4.873178951421704e-01 
6.900000e-01  4.839518348999492e-01 
6.950000e-01  4.813532164858784e-01 
7.000000e-01  4.795117041620839e-01 
7.050000e-01  4.783768709234473e-01 
7.100000e-01  4.779044083606768e-01 
7.150000e-01  4.780704614362040e-01 
7.200000e-01  4.788511996652985e-01 
7.250000e-01  4.801812627877081e-01 
7.300000e-01  4.819151384616261e-01 
7.350000e-01  4.838155148770911e-01 
7.400000e-01  4.855820703259456e-01 
7.450000e-01  4.869171851499683e-01 
7.500000e-01  4.876085242576270e-01 
7.550000e-01  4.875991175721096e-01 
7.600000e-01  4.870174880705196e-01 
7.650000e-01  4.861532100837066e-01 
7.700000e-01  4.853824114566758e-01 
7.750000e-01  4.850660119785071e-01 
7.800000e-01  4.854539622102946e-01 
7.850000e-01  4.866272976922776e-01 
7.900000e-01  4.884967480902787e-01 
7.950000e-01  4.908565758125061e-01 
8.000000e-01  4.934725466868292e-01 
8.050000e-01  4.961706731912064e-01 
8.100000e-01  4.988931142414501e-01 
8.150000e-01  5.016995591158275e-01 
8.200000e-01  5.047124375793195e-01 
8.250000e-01  5.080253719672274e-01 
8.300000e-01  5.116089366585824e-01 
8.350000e-01  5.152506674874503e-01 
8.400000e-01  5.185560635706833e-01 
8.450000e-01  5.210172964969487e-01 
8.500000e-01  5.221332025728901e-01 
8.550000e-01  5.215457907668622e-01 
8.600000e-01  5.191513929753481e-01 
8.650000e-01  5.151514394751517e-01 
8.700000e-01  5.100265107307059e-01 
8.750000e-01  5.044413163423808e-01 
8.800000e-01  4.991091559068958e-01 
8.850000e-01  4.946551384317334e-01 
8.900000e-01  4.915148249811724e-01 
8.950000e-01  4.898906743612402e-01 
9.000000e-01  4.897683496986057e-01 
9.050000e-01  4.909760902152571e-01 
9.100000e-01  4.932595510200808e-01 
9.150000e-01  4.963449088061948e-01 
9.200000e-01  4.999732341470906e-01 
9.250000e-01  5.039040897638791e-01 
9.300000e-01  5.078996523574406e-01 
9.350000e-01  5.117073340906577e-01 
9.400000e-01  5.150570541193477e-01 
9.450000e-01  5.176807247073368e-01 
9.500000e-01  5.193504207719104e-01 
9.550000e-01  5.199228811997914e-01 
9.600000e-01  5.193747938107419e-01 
9.650000e-01  5.178164752774373e-01 
9.700000e-01  5.154791844911814e-01 
9.750000e-01  5.126799568515528e-01 
9.800000e-01  5.097741013189930e-01 
9.850000e-01  5.071073567933371e-01 
9.900000e-01  5.049771751471054e-01 
9.950000e-01  5.036074199106406e-01 
1.000000e+00  5.031354619799541e-01 
