TITLE ="t=1.015370" 
VARIABLES = "x"                 "phi" 
ZONE I=201, ZONETYPE=Ordered, DATAPACKING=POINT
0.000000e+00  9.999531161257230e-01 
5.000000e-03  9.916311027772795e-01 
1.000000e-02  9.927096418553288e-01 
1.500000e-02  9.599282268401271e-01 
2.000000e-02  8.839249570466458e-01 
2.500000e-02  7.700286120226882e-01 
3.000000e-02  6.290609859903891e-01 
3.500000e-02  4.750146442357173e-01 
4.000000e-02  3.233733073789258e-01 
4.500000e-02  1.893806195064915e-01 
5.000000e-02  8.633626530921666e-02 
5.500000e-02  2.395398555707727e-02 
6.000000e-02  4.904926627244332e-03 
6.500000e-02  4.791285467674485e-03 
7.000000e-02  4.511423814325546e-03 
7.500000e-02  7.158944112138347e-03 
8.000000e-02  4.094160109809634e-02 
8.500000e-02  1.188409932259544e-01 
9.000000e-02  2.347633743838085e-01 
9.500000e-02  3.774169389241734e-01 
1.000000e-01  5.324826261659651e-01 
1.050000e-01  6.842699994579007e-01 
1.100000e-01  8.174491961282015e-01 
1.150000e-01  9.187576939347283e-01 
1.200000e-01  9.786633491797754e-01 
1.250000e-01  9.953061690980937e-01 
1.300000e-01  9.952531861932959e-01 
1.350000e-01  9.950989162464946e-01 
1.400000e-01  9.757741406653241e-01 
1.450000e-01  9.127464368593980e-01 
1.500000e-01  8.088295814769476e-01 
1.550000e-01  6.738834571011497e-01 
1.600000e-01  5.213698947085881e-01 
1.650000e-01  3.666999343923075e-01 
1.700000e-01  2.255219807877513e-01 
1.750000e-01  1.119933698870604e-01 
1.800000e-01  3.713011076227419e-02 
1.850000e-01  6.480564019977191e-03 
1.900000e-01  4.512580460476732e-03 
1.950000e-01  5.051103357382599e-03 
2.000000e-01  2.533935238316586e-02 
2.050000e-01  8.947003178628231e-02 
2.100000e-01  1.942994858478744e-01 
2.150000e-01  3.298540372500787e-01 
2.200000e-01  4.826032308917370e-01 
2.250000e-01  6.371097446936872e-01 
2.300000e-01  7.777428726339962e-01 
2.350000e-01  8.904055924312779e-01 
2.400000e-01  9.641834082421024e-01 
2.450000e-01  9.937379378075337e-01 
2.500000e-01  9.954265682010908e-01 
2.550000e-01  9.952064815220587e-01 
2.600000e-01  9.952870566896134e-01 
2.650000e-01  9.781900048173674e-01 
2.700000e-01  9.177437088793700e-01 
2.750000e-01  8.159769843848621e-01 
2.800000e-01  6.824804815505179e-01 
2.850000e-01  5.305531543815638e-01 
2.900000e-01  3.755412310784969e-01 
2.950000e-01  2.331304625256504e-01 
3.000000e-01  1.176147605257408e-01 
3.050000e-01  4.024174430973648e-02 
3.100000e-01  7.018214151422216e-03 
3.150000e-01  4.513230432251418e-03 
3.200000e-01  4.789738491254424e-03 
3.250000e-01  4.810836660619054e-03 
3.300000e-01  4.412917934543918e-03 
3.350000e-01  8.885522252837898e-03 
3.400000e-01  4.856093361935970e-02 
3.450000e-01  1.319933985773281e-01 
3.500000e-01  2.521624469764353e-01 
3.550000e-01  3.972890544436949e-01 
3.600000e-01  5.527871125633619e-01 
3.650000e-01  7.029293291920459e-01 
3.700000e-01  8.325837333985553e-01 
3.750000e-01  9.289134563011326e-01 
3.800000e-01  9.830912911389009e-01 
3.850000e-01  9.954910963152540e-01 
3.900000e-01  9.950338826717327e-01 
3.950000e-01  9.953428756971876e-01 
4.000000e-01  9.853621021198472e-01 
4.050000e-01  9.384798031981366e-01 
4.100000e-01  8.531373248124303e-01 
4.150000e-01  7.370810651232428e-01 
4.200000e-01  6.018023198377557e-01 
4.250000e-01  4.609536880921191e-01 
4.300000e-01  3.288272047894631e-01 
4.350000e-01  2.188073898755955e-01 
4.400000e-01  1.419425739671544e-01 
4.450000e-01  1.058109285380099e-01 
4.500000e-01  1.138753965211947e-01 
4.550000e-01  1.653344355869846e-01 
4.600000e-01  2.551463292943143e-01 
4.650000e-01  3.743366785180786e-01 
4.700000e-01  5.108408219460795e-01 
4.750000e-01  6.507632556036415e-01 
4.800000e-01  7.798611988596461e-01 
4.850000e-01  8.850816255196481e-01 
4.900000e-01  9.560160794977235e-01 
4.950000e-01  9.864184668597341e-01 
5.000000e-01  9.752734039593354e-01 
5.050000e-01  9.202604629381796e-01 
5.100000e-01  8.237924760121836e-01 
5.150000e-01  6.946367813342166e-01 
5.200000e-01  5.455120765138214e-01 
5.250000e-01  3.914037144388156e-01 
5.300000e-01  2.478660485498320e-01 
5.350000e-01  1.292979618754699e-01 
5.400000e-01  4.729210299065606e-02 
5.450000e-01  8.673281819341716e-03 
5.500000e-01  4.445506764991895e-03 
5.550000e-01  4.831301821745497e-03 
5.600000e-01  4.760840938838937e-03 
5.650000e-01  4.782554679185101e-03 
5.700000e-01  4.674659609275079e-03 
5.750000e-01  5.390303096981039e-03 
5.800000e-01  2.920573146444745e-02 
5.850000e-01  9.711549135135977e-02 
5.900000e-01  2.050418576008509e-01 
5.950000e-01  3.426365136194450e-01 
6.000000e-01  4.961419271509052e-01 
6.050000e-01  6.500379642209608e-01 
6.100000e-01  7.887612164753343e-01 
6.150000e-01  8.984272146461280e-01 
6.200000e-01  9.684763119668683e-01 
6.250000e-01  9.943390418880437e-01 
6.300000e-01  9.953635882687076e-01 
6.350000e-01  9.952237494110462e-01 
6.400000e-01  9.952464680733242e-01 
6.450000e-01  9.952416371965468e-01 
6.500000e-01  9.952519410313778e-01 
6.550000e-01  9.951896123685845e-01 
6.600000e-01  9.955682474367097e-01 
6.650000e-01  9.916724651485948e-01 
6.700000e-01  9.536093132744005e-01 
6.750000e-01  8.716196760437516e-01 
6.800000e-01  7.524954719924257e-01 
6.850000e-01  6.079036549530166e-01 
6.900000e-01  4.523814523880681e-01 
6.950000e-01  3.016721787028031e-01 
7.000000e-01  1.709892212491785e-01 
7.050000e-01  7.331621843226990e-02 
7.100000e-01  1.771827505133332e-02 
7.150000e-01  4.485919921545754e-03 
7.200000e-01  4.801381011402925e-03 
7.250000e-01  4.749605496109545e-03 
7.300000e-01  4.757423883715879e-03 
7.350000e-01  4.755945640899998e-03 
7.400000e-01  4.756885839428689e-03 
7.450000e-01  4.751999705675644e-03 
7.500000e-01  4.783717889574876e-03 
7.550000e-01  4.587112540546682e-03 
7.600000e-01  6.120428789190275e-03 
7.650000e-01  3.489283230479035e-02 
7.700000e-01  1.078982083764576e-01 
7.750000e-01  2.199496658627489e-01 
7.800000e-01  3.602034101690437e-01 
7.850000e-01  5.146034066444992e-01 
7.900000e-01  6.675295408193723e-01 
7.950000e-01  8.035239335054767e-01 
8.000000e-01  9.090058864350947e-01 
8.050000e-01  9.739209957405928e-01 
8.100000e-01  9.949341885796840e-01 
8.150000e-01  9.952882407131920e-01 
8.200000e-01  9.952354880903974e-01 
8.250000e-01  9.952439001343796e-01 
8.300000e-01  9.952417346032297e-01 
8.350000e-01  9.952471448902653e-01 
8.400000e-01  9.952130368462779e-01 
8.450000e-01  9.954242980512013e-01 
8.500000e-01  9.805011497302262e-01 
8.550000e-01  9.227086800287356e-01 
8.600000e-01  8.231737932432543e-01 
8.650000e-01  6.912027203028390e-01 
8.700000e-01  5.399231960537549e-01 
8.750000e-01  3.846104538162081e-01 
8.800000e-01  2.409837868686517e-01 
8.850000e-01  1.234725252885788e-01 
8.900000e-01  4.355657517214246e-02 
8.950000e-01  7.684469713929867e-03 
9.000000e-01  4.466320851098107e-03 
9.050000e-01  4.804304744545445e-03 
9.100000e-01  4.749509066374469e-03 
9.150000e-01  4.753926084155310e-03 
9.200000e-01  4.779041611335611e-03 
9.250000e-01  4.613792992767220e-03 
9.300000e-01  5.858074110263897e-03 
9.350000e-01  3.304856669484830e-02 
9.400000e-01  1.044666476639122e-01 
9.450000e-01  2.152492191683752e-01 
9.500000e-01  3.547012142469554e-01 
9.550000e-01  5.088543036801698e-01 
9.600000e-01  6.621139722081005e-01 
9.650000e-01  7.989839968430640e-01 
9.700000e-01  9.057840095125108e-01 
9.750000e-01  9.722968588947754e-01 
9.800000e-01  9.947765071403138e-01 
9.850000e-01  9.953107499623346e-01 
9.900000e-01  9.952333020912798e-01 
9.950000e-01  9.952457971465227e-01 
1.000000e+00  9.952436430032033e-01 
