TITLE ="t=0.660950" 
VARIABLES = "x"                 "phi" 
ZONE I=201, ZONETYPE=Ordered, DATAPACKING=POINT
0.000000e+00  1.000025471507072e+00 
5.000000e-03  9.913154580596082e-01 
1.000000e-02  9.923306276453745e-01 
1.500000e-02  9.596614121660193e-01 
2.000000e-02  8.841629911303102e-01 
2.500000e-02  7.708827764303846e-01 
3.000000e-02  6.304698749398411e-01 
3.500000e-02  4.768037869430426e-01 
4.000000e-02  3.252971797049588e-01 
4.500000e-02  1.911613518572392e-01 
5.000000e-02  8.770199216760918e-02 
5.500000e-02  2.468158299740674e-02 
6.000000e-02  4.976792940636819e-03 
6.500000e-02  4.783837249607678e-03 
7.000000e-02  4.521765634536898e-03 
7.500000e-02  7.061473846309313e-03 
8.000000e-02  4.042663099525182e-02 
8.500000e-02  1.179216265054727e-01 
9.000000e-02  2.335256401464666e-01 
9.500000e-02  3.759842095909767e-01 
1.000000e-01  5.309998697192470e-01 
1.050000e-01  6.828875028774454e-01 
1.100000e-01  8.163059420624709e-01 
1.150000e-01  9.179654749529834e-01 
1.200000e-01  9.782891954430853e-01 
1.250000e-01  9.952809455380528e-01 
1.300000e-01  9.952573952949180e-01 
1.350000e-01  9.950971473016932e-01 
1.400000e-01  9.757659149366644e-01 
1.450000e-01  9.127315607488302e-01 
1.500000e-01  8.088102503181679e-01 
1.550000e-01  6.738622116789846e-01 
1.600000e-01  5.213492400383942e-01 
1.650000e-01  3.666820447771652e-01 
1.700000e-01  2.255084415661169e-01 
1.750000e-01  1.119849653289380e-01 
1.800000e-01  3.712664948073494e-02 
1.850000e-01  6.480564649856268e-03 
1.900000e-01  4.512320925571136e-03 
1.950000e-01  5.055067325276093e-03 
2.000000e-01  2.537512098539276e-02 
2.050000e-01  8.953447271147172e-02 
2.100000e-01  1.943817469259885e-01 
2.150000e-01  3.299425675043443e-01 
2.200000e-01  4.826873417604731e-01 
2.250000e-01  6.371807818704868e-01 
2.300000e-01  7.777951693690993e-01 
2.350000e-01  8.904371446414013e-01 
2.400000e-01  9.641962415582455e-01 
2.450000e-01  9.937386334018791e-01 
2.500000e-01  9.954259040045563e-01 
2.550000e-01  9.952065913641119e-01 
2.600000e-01  9.952835996812219e-01 
2.650000e-01  9.781486382551341e-01 
2.700000e-01  9.176620623523963e-01 
2.750000e-01  8.158655213770878e-01 
2.800000e-01  6.823522910046607e-01 
2.850000e-01  5.304221068127872e-01 
2.900000e-01  3.754204910518780e-01 
2.950000e-01  2.330311024580358e-01 
3.000000e-01  1.175445877342835e-01 
3.050000e-01  4.020442462773974e-02 
3.100000e-01  7.011512408919521e-03 
3.150000e-01  4.513638966343357e-03 
3.200000e-01  4.787979237013393e-03 
3.250000e-01  4.815654993455370e-03 
3.300000e-01  4.377933266165623e-03 
3.350000e-01  9.956705706560961e-03 
3.400000e-01  5.247089730411834e-02 
3.450000e-01  1.385533365558337e-01 
3.500000e-01  2.607709732793440e-01 
3.550000e-01  4.071049794997181e-01 
3.600000e-01  5.628298614871557e-01 
3.650000e-01  7.121866093714582e-01 
3.700000e-01  8.401213406580293e-01 
3.750000e-01  9.339793352333874e-01 
3.800000e-01  9.852451678086499e-01 
3.850000e-01  9.955870608876611e-01 
3.900000e-01  9.950478385820885e-01 
3.950000e-01  9.954869594228356e-01 
4.000000e-01  9.877522521384681e-01 
4.050000e-01  9.433596582338292e-01 
4.100000e-01  8.586680724543714e-01 
4.150000e-01  7.411859520695413e-01 
4.200000e-01  6.024977292440084e-01 
4.250000e-01  4.565718476664768e-01 
4.300000e-01  3.181909414703870e-01 
4.350000e-01  2.013420235919978e-01 
4.400000e-01  1.177055741790910e-01 
4.450000e-01  7.542258569277575e-02 
4.500000e-01  7.841257570359493e-02 
4.550000e-01  1.263994713798139e-01 
4.600000e-01  2.148905378415963e-01 
4.650000e-01  3.352193376924174e-01 
4.700000e-01  4.753192049059853e-01 
4.750000e-01  6.210035610773320e-01 
4.800000e-01  7.574966044348328e-01 
4.850000e-01  8.710388080466128e-01 
4.900000e-01  9.504294434430344e-01 
4.950000e-01  9.887122754068784e-01 
5.000000e-01  9.867004809645646e-01 
5.050000e-01  9.426007556480882e-01 
5.100000e-01  8.554325415835777e-01 
5.150000e-01  7.327065115951057e-01 
5.200000e-01  5.864227447930433e-01 
5.250000e-01  4.312558185414872e-01 
5.300000e-01  2.828746421141781e-01 
5.350000e-01  1.562082500498913e-01 
5.400000e-01  6.376407798507211e-02 
5.450000e-01  1.389213243331270e-02 
5.500000e-01  4.386438412560314e-03 
5.550000e-01  4.833424668040227e-03 
5.600000e-01  4.754692605919731e-03 
5.650000e-01  4.779761664032964e-03 
5.700000e-01  4.675223162549090e-03 
5.750000e-01  5.379278480352856e-03 
5.800000e-01  2.909326415148273e-02 
5.850000e-01  9.687919838937155e-02 
5.900000e-01  2.046878777073808e-01 
5.950000e-01  3.421888620707548e-01 
6.000000e-01  4.956393858801753e-01 
6.050000e-01  6.495298923288005e-01 
6.100000e-01  7.883023870176279e-01 
6.150000e-01  8.980721759410498e-01 
6.200000e-01  9.682732296663837e-01 
6.250000e-01  9.943079136285100e-01 
6.300000e-01  9.953628887376182e-01 
6.350000e-01  9.952175659780842e-01 
6.400000e-01  9.952394219483891e-01 
6.450000e-01  9.952335003232509e-01 
6.500000e-01  9.952433124932538e-01 
6.550000e-01  9.951806201978094e-01 
6.600000e-01  9.955629207329949e-01 
6.650000e-01  9.915814505865901e-01 
6.700000e-01  9.533648501721985e-01 
6.750000e-01  8.713339296286944e-01 
6.800000e-01  7.522683230260873e-01 
6.850000e-01  6.078036950919369e-01 
6.900000e-01  4.524390618156693e-01 
6.950000e-01  3.018763973630861e-01 
7.000000e-01  1.712882597545712e-01 
7.050000e-01  7.362148590426369e-02 
7.100000e-01  1.791374689727689e-02 
7.150000e-01  4.508704911784511e-03 
7.200000e-01  4.811057537519468e-03 
7.250000e-01  4.764253628759282e-03 
7.300000e-01  4.772840660333355e-03 
7.350000e-01  4.771775525416663e-03 
7.400000e-01  4.772102333836780e-03 
7.450000e-01  4.765679936491708e-03 
7.500000e-01  4.795509041392429e-03 
7.550000e-01  4.592833728579703e-03 
7.600000e-01  6.156989433673426e-03 
7.650000e-01  3.503247187501200e-02 
7.700000e-01  1.080713109389178e-01 
7.750000e-01  2.200923429686541e-01 
7.800000e-01  3.602717946588983e-01 
7.850000e-01  5.145771534671724e-01 
7.900000e-01  6.674132675494271e-01 
7.950000e-01  8.033465592342007e-01 
8.000000e-01  9.088178174890865e-01 
8.050000e-01  9.737885929318237e-01 
8.100000e-01  9.949126253985630e-01 
8.150000e-01  9.952853799887160e-01 
8.200000e-01  9.952295650684535e-01 
8.250000e-01  9.952382903547807e-01 
8.300000e-01  9.952363206424188e-01 
8.350000e-01  9.952420650347644e-01 
8.400000e-01  9.952099472090050e-01 
8.450000e-01  9.954151690202653e-01 
8.500000e-01  9.804264922937400e-01 
8.550000e-01  9.225930278228911e-01 
8.600000e-01  8.230583271823630e-01 
8.650000e-01  6.911196626188786e-01 
8.700000e-01  5.398922484784281e-01 
8.750000e-01  3.846370124603222e-01 
8.800000e-01  2.410583668354629e-01 
8.850000e-01  1.235713976634561e-01 
8.900000e-01  4.364352213353984e-02 
8.950000e-01  7.716451240828921e-03 
9.000000e-01  4.470155033905283e-03 
9.050000e-01  4.811730806785284e-03 
9.100000e-01  4.758514470736518e-03 
9.150000e-01  4.763937051509152e-03 
9.200000e-01  4.790530349847925e-03 
9.250000e-01  4.618554315817801e-03 
9.300000e-01  5.926622432884126e-03 
9.350000e-01  3.335965623636355e-02 
9.400000e-01  1.048799405640785e-01 
9.450000e-01  2.156199225029251e-01 
9.500000e-01  3.549225912756854e-01 
9.550000e-01  5.088691054304025e-01 
9.600000e-01  6.619201968502788e-01 
9.650000e-01  7.986356881049970e-01 
9.700000e-01  9.053871966215525e-01 
9.750000e-01  9.720000187117096e-01 
9.800000e-01  9.947202990941038e-01 
9.850000e-01  9.953004895214862e-01 
9.900000e-01  9.952132595850709e-01 
9.950000e-01  9.952245775395968e-01 
1.000000e+00  9.952215452064482e-01 
