TITLE ="t=0.001133" 
VARIABLES = "x"                 "phi" 
ZONE I=201, ZONETYPE=Ordered, DATAPACKING=POINT
0.000000e+00  9.837522158699523e-01 
5.000000e-03  7.459412593336660e-01 
1.000000e-02  5.209993018547089e-01 
1.500000e-02  4.048860817755922e-01 
2.000000e-02  3.682136913414327e-01 
2.500000e-02  3.826358541856395e-01 
3.000000e-02  4.230551796060780e-01 
3.500000e-02  4.669853038476795e-01 
4.000000e-02  4.999139935717928e-01 
4.500000e-02  5.163151516812817e-01 
5.000000e-02  5.177126993581782e-01 
5.500000e-02  5.097717197197117e-01 
6.000000e-02  4.992591923002472e-01 
6.500000e-02  4.916289183771117e-01 
7.000000e-02  4.897252184720691e-01 
7.500000e-02  4.936403839431509e-01 
8.000000e-02  5.014148091085453e-01 
8.500000e-02  5.101371643289019e-01 
9.000000e-02  5.170392176759155e-01 
9.500000e-02  5.203013257124480e-01 
1.000000e-01  5.194260987829762e-01 
1.050000e-01  5.151684350615007e-01 
1.100000e-01  5.091164219582529e-01 
1.150000e-01  5.030890249831496e-01 
1.200000e-01  4.985443244415587e-01 
1.250000e-01  4.961725421051849e-01 
1.300000e-01  4.957839604283785e-01 
1.350000e-01  4.965057973009136e-01 
1.400000e-01  4.972005144090001e-01 
1.450000e-01  4.969454500169238e-01 
1.500000e-01  4.953977255398799e-01 
1.550000e-01  4.929161715935472e-01 
1.600000e-01  4.904059911995580e-01 
1.650000e-01  4.889560351887937e-01 
1.700000e-01  4.894129494798639e-01 
1.750000e-01  4.920536671927092e-01 
1.800000e-01  4.964733808483764e-01 
1.850000e-01  5.017199365766336e-01 
1.900000e-01  5.066131652251469e-01 
1.950000e-01  5.101250612718955e-01 
2.000000e-01  5.116849871957898e-01 
2.050000e-01  5.113125883885086e-01 
2.100000e-01  5.095506581221916e-01 
2.150000e-01  5.072419171433300e-01 
2.200000e-01  5.052408422434792e-01 
2.250000e-01  5.041605168592889e-01 
2.300000e-01  5.042281057440186e-01 
2.350000e-01  5.052765427378471e-01 
2.400000e-01  5.068536954323191e-01 
2.450000e-01  5.083986882940443e-01 
2.500000e-01  5.094245096154120e-01 
2.550000e-01  5.096541853282457e-01 
2.600000e-01  5.090775736532429e-01 
2.650000e-01  5.079198185505889e-01 
2.700000e-01  5.065355073111176e-01 
2.750000e-01  5.052615171189964e-01 
2.800000e-01  5.042738552765753e-01 
2.850000e-01  5.034963263052087e-01 
2.900000e-01  5.025984212163093e-01 
2.950000e-01  5.010956445579362e-01 
3.000000e-01  4.985318242562247e-01 
3.050000e-01  4.946897208543633e-01 
3.100000e-01  4.897564766632776e-01 
3.150000e-01  4.843748737211998e-01 
3.200000e-01  4.795427617277019e-01 
3.250000e-01  4.763732548015845e-01 
3.300000e-01  4.757803958289564e-01 
3.350000e-01  4.781890816535149e-01 
3.400000e-01  4.833688194742805e-01 
3.450000e-01  4.904545869998588e-01 
3.500000e-01  4.981562607628121e-01 
3.550000e-01  5.050940140030227e-01 
3.600000e-01  5.101549993999535e-01 
3.650000e-01  5.127612214837375e-01 
3.700000e-01  5.129705664431766e-01 
3.750000e-01  5.113902515569232e-01 
3.800000e-01  5.089433545339941e-01 
3.850000e-01  5.065724618986557e-01 
3.900000e-01  5.049760539277623e-01 
3.950000e-01  5.044525551418636e-01 
4.000000e-01  5.048849450551524e-01 
4.050000e-01  5.058517901545784e-01 
4.100000e-01  5.068139472121699e-01 
4.150000e-01  5.073097405989899e-01 
4.200000e-01  5.070972037033603e-01 
4.250000e-01  5.062053674189263e-01 
4.300000e-01  5.048888786748379e-01 
4.350000e-01  5.035114424356728e-01 
4.400000e-01  5.024047396737652e-01 
4.450000e-01  5.017545871008601e-01 
4.500000e-01  5.015536620821979e-01 
4.550000e-01  5.016339459490393e-01 
4.600000e-01  5.017609320322682e-01 
4.650000e-01  5.017471023133396e-01 
4.700000e-01  5.015343552563047e-01 
4.750000e-01  5.012082866210532e-01 
4.800000e-01  5.009371958136676e-01 
4.850000e-01  5.008632753729274e-01 
4.900000e-01  5.009972920259376e-01 
4.950000e-01  5.011694682413278e-01 
5.000000e-01  5.010660588549603e-01 
5.050000e-01  5.003425848733730e-01 
5.100000e-01  4.987680776886427e-01 
5.150000e-01  4.963374549027769e-01 
5.200000e-01  4.933004990450114e-01 
5.250000e-01  4.900917730450218e-01 
5.300000e-01  4.871900661423781e-01 
5.350000e-01  4.849678050304959e-01 
5.400000e-01  4.835947878829936e-01 
5.450000e-01  4.830341710351710e-01 
5.500000e-01  4.831241791549509e-01 
5.550000e-01  4.836980823356010e-01 
5.600000e-01  4.846778892845578e-01 
5.650000e-01  4.860926541588755e-01 
5.700000e-01  4.880127760669946e-01 
5.750000e-01  4.904370324760405e-01 
5.800000e-01  4.931964969643468e-01 
5.850000e-01  4.959348218830897e-01 
5.900000e-01  4.981893105450713e-01 
5.950000e-01  4.995484215295565e-01 
6.000000e-01  4.998221151301065e-01 
6.050000e-01  4.991503012298699e-01 
6.100000e-01  4.979967600224390e-01 
6.150000e-01  4.970211744785100e-01 
6.200000e-01  4.968703025373131e-01 
6.250000e-01  4.979606119852321e-01 
6.300000e-01  5.003274230430821e-01 
6.350000e-01  5.035908636206475e-01 
6.400000e-01  5.070483222588841e-01 
6.450000e-01  5.098624506446628e-01 
6.500000e-01  5.112863694375865e-01 
6.550000e-01  5.108600214563642e-01 
6.600000e-01  5.085231413282300e-01 
6.650000e-01  5.046160105160061e-01 
6.700000e-01  4.997716624595394e-01 
6.750000e-01  4.947342417803108e-01 
6.800000e-01  4.901597768385338e-01 
6.850000e-01  4.864611607137548e-01 
6.900000e-01  4.837453338847194e-01 
6.950000e-01  4.818595974795183e-01 
7.000000e-01  4.805245799798498e-01 
7.050000e-01  4.794979542068390e-01 
7.100000e-01  4.787000065710622e-01 
7.150000e-01  4.782471723164566e-01 
7.200000e-01  4.783785472707751e-01 
7.250000e-01  4.793077529732249e-01 
7.300000e-01  4.810677150716515e-01 
7.350000e-01  4.834223268094632e-01 
7.400000e-01  4.858923368220184e-01 
7.450000e-01  4.878940041956690e-01 
7.500000e-01  4.889395163646651e-01 
7.550000e-01  4.888197967388676e-01 
7.600000e-01  4.876954701839155e-01 
7.650000e-01  4.860578640901262e-01 
7.700000e-01  4.845731947026620e-01 
7.750000e-01  4.838679122632984e-01 
7.800000e-01  4.843338092056215e-01 
7.850000e-01  4.860212159547620e-01 
7.900000e-01  4.886534480556915e-01 
7.950000e-01  4.917507316875157e-01 
8.000000e-01  4.948143394465928e-01 
8.050000e-01  4.975039695180763e-01 
8.100000e-01  4.997472514352999e-01 
8.150000e-01  5.017453305310550e-01 
8.200000e-01  5.038734953271723e-01 
8.250000e-01  5.065100470608878e-01 
8.300000e-01  5.098505700031625e-01 
8.350000e-01  5.137718400448632e-01 
8.400000e-01  5.177971572884728e-01 
8.450000e-01  5.211850632269101e-01 
8.500000e-01  5.231235748712307e-01 
8.550000e-01  5.229739943905762e-01 
8.600000e-01  5.204855480015154e-01 
8.650000e-01  5.159053605755659e-01 
8.700000e-01  5.099401565776546e-01 
8.750000e-01  5.035773038158793e-01 
8.800000e-01  4.978242151683691e-01 
8.850000e-01  4.934556441551247e-01 
8.900000e-01  4.908546239641620e-01 
8.950000e-01  4.899950547476105e-01 
9.000000e-01  4.905571538921302e-01 
9.050000e-01  4.921152968087472e-01 
9.100000e-01  4.943138829476550e-01 
9.150000e-01  4.969607399050813e-01 
9.200000e-01  5.000113755489567e-01 
9.250000e-01  5.034695043494329e-01 
9.300000e-01  5.072652017158683e-01 
9.350000e-01  5.111763137362834e-01 
9.400000e-01  5.148320386466235e-01 
9.450000e-01  5.177953885517427e-01 
9.500000e-01  5.196850567235493e-01 
9.550000e-01  5.202834083346123e-01 
9.600000e-01  5.195895004794794e-01 
9.650000e-01  5.178047489038650e-01 
9.700000e-01  5.152679070964793e-01 
9.750000e-01  5.123717258237809e-01 
9.800000e-01  5.094915888626120e-01 
9.850000e-01  5.069420430654891e-01 
9.900000e-01  5.049608017029273e-01 
9.950000e-01  5.037099280114480e-01 
1.000000e+00  5.032828176713349e-01 
