TITLE ="t=7.291751" 
VARIABLES = "x"                 "phi" 
ZONE I=201, ZONETYPE=Ordered, DATAPACKING=POINT
0.000000e+00  9.998894583808126e-01 
5.000000e-03  9.919361738710112e-01 
1.000000e-02  9.900860986021085e-01 
1.500000e-02  9.487764240238592e-01 
2.000000e-02  8.639655193805369e-01 
2.500000e-02  7.428247155526718e-01 
3.000000e-02  5.972023174784786e-01 
3.500000e-02  4.417156842457265e-01 
4.000000e-02  2.920786235605560e-01 
4.500000e-02  1.633653360575301e-01 
5.000000e-02  6.831919008866451e-02 
5.500000e-02  1.564331700721911e-02 
6.000000e-02  4.402891202499200e-03 
6.500000e-02  4.884250833858994e-03 
7.000000e-02  4.358857324381917e-03 
7.500000e-02  1.032921307189381e-02 
8.000000e-02  5.371940220451116e-02 
8.500000e-02  1.406179777301299e-01 
9.000000e-02  2.634726436579766e-01 
9.500000e-02  4.101922302759711e-01 
1.000000e-01  5.660071420431373e-01 
1.050000e-01  7.151447743962337e-01 
1.100000e-01  8.425680437354161e-01 
1.150000e-01  9.356650168133859e-01 
1.200000e-01  9.859899017882280e-01 
1.250000e-01  9.956252918356778e-01 
1.300000e-01  9.951968910677457e-01 
1.350000e-01  9.951200689502667e-01 
1.400000e-01  9.758699434765682e-01 
1.450000e-01  9.129321032005019e-01 
1.500000e-01  8.090892703267343e-01 
1.550000e-01  6.741920784155925e-01 
1.600000e-01  5.216968588244227e-01 
1.650000e-01  3.670126113890811e-01 
1.700000e-01  2.257892846762861e-01 
1.750000e-01  1.121892188273219e-01 
1.800000e-01  3.723673785876053e-02 
1.850000e-01  6.496736192270369e-03 
1.900000e-01  4.516865811655066e-03 
1.950000e-01  5.014548362026469e-03 
2.000000e-01  2.492029899146956e-02 
2.050000e-01  8.862514673942593e-02 
2.100000e-01  1.931022543471962e-01 
2.150000e-01  3.284215519927448e-01 
2.200000e-01  4.810790900599297e-01 
2.250000e-01  6.356477918824848e-01 
2.300000e-01  7.764902617210000e-01 
2.350000e-01  8.894863541694984e-01 
2.400000e-01  9.636825210995492e-01 
2.450000e-01  9.936592661098066e-01 
2.500000e-01  9.954349757523492e-01 
2.550000e-01  9.951984646624417e-01 
2.600000e-01  9.953300676471983e-01 
2.650000e-01  9.788263124496666e-01 
2.700000e-01  9.190906720731160e-01 
2.750000e-01  8.179198377212751e-01 
2.800000e-01  6.848288624416676e-01 
2.850000e-01  5.330710135443529e-01 
2.900000e-01  3.779737629764881e-01 
2.950000e-01  2.352322047354497e-01 
3.000000e-01  1.191769802554333e-01 
3.050000e-01  4.111862453225130e-02 
3.100000e-01  7.185695994383860e-03 
3.150000e-01  4.498855835251864e-03 
3.200000e-01  4.800046829055456e-03 
3.250000e-01  4.746450645589045e-03 
3.300000e-01  4.784554065737318e-03 
3.350000e-01  4.593270651222571e-03 
3.400000e-01  6.063502455710634e-03 
3.450000e-01  3.449615982532310e-02 
3.500000e-01  1.071555718420243e-01 
3.550000e-01  2.189251251661778e-01 
3.600000e-01  3.589956337571150e-01 
3.650000e-01  5.133326977708134e-01 
3.700000e-01  6.663243225465106e-01 
3.750000e-01  8.025066027848407e-01 
3.800000e-01  9.082790175314186e-01 
3.850000e-01  9.735527729439875e-01 
3.900000e-01  9.948987434731136e-01 
3.950000e-01  9.952927452083882e-01 
4.000000e-01  9.952343764365329e-01 
4.050000e-01  9.952435887937355e-01 
4.100000e-01  9.952421760263489e-01 
4.150000e-01  9.952424211810610e-01 
4.200000e-01  9.952424061329282e-01 
4.250000e-01  9.952424399439178e-01 
4.300000e-01  9.952424138718609e-01 
4.350000e-01  9.952427320829981e-01 
4.400000e-01  9.952408520139555e-01 
4.450000e-01  9.952530263252800e-01 
4.500000e-01  9.951744110239346e-01 
4.550000e-01  9.956462938608991e-01 
4.600000e-01  9.884658900550555e-01 
4.650000e-01  9.425026165364336e-01 
4.700000e-01  8.532739583722087e-01 
4.750000e-01  7.286778442422444e-01 
4.800000e-01  5.810049996271850e-01 
4.850000e-01  4.251308770140698e-01 
4.900000e-01  2.768348755944291e-01 
4.950000e-01  1.510613051594131e-01 
5.000000e-01  6.023488781911920e-02 
5.050000e-01  1.248309639528189e-02 
5.100000e-01  4.353306596704243e-03 
5.150000e-01  4.825740243295315e-03 
5.200000e-01  4.746989618560312e-03 
5.250000e-01  4.759145046161794e-03 
5.300000e-01  4.757228512039683e-03 
5.350000e-01  4.757513271385047e-03 
5.400000e-01  4.757451739338660e-03 
5.450000e-01  4.757460507752436e-03 
5.500000e-01  4.757354390492094e-03 
5.550000e-01  4.757931395355581e-03 
5.600000e-01  4.754144796140902e-03 
5.650000e-01  4.778371087803838e-03 
5.700000e-01  4.626340540318593e-03 
5.750000e-01  5.752708490617121e-03 
5.800000e-01  3.223958466485084e-02 
5.850000e-01  1.029292585726210e-01 
5.900000e-01  2.131142833269662e-01 
5.950000e-01  3.521733801053528e-01 
6.000000e-01  5.061847007264042e-01 
6.050000e-01  6.595720041461648e-01 
6.100000e-01  7.968277255997424e-01 
6.150000e-01  9.042312159157134e-01 
6.200000e-01  9.714950568849225e-01 
6.250000e-01  9.946903925961766e-01 
6.300000e-01  9.953206882528044e-01 
6.350000e-01  9.952301388667570e-01 
6.400000e-01  9.952447671836302e-01 
6.450000e-01  9.952410814647245e-01 
6.500000e-01  9.952512269401067e-01 
6.550000e-01  9.951884353608041e-01 
6.600000e-01  9.955701058564177e-01 
6.650000e-01  9.916157807946852e-01 
6.700000e-01  9.533849007055181e-01 
6.750000e-01  8.712465871190044e-01 
6.800000e-01  7.520152433693191e-01 
6.850000e-01  6.073680896370506e-01 
6.900000e-01  4.518464425396476e-01 
6.950000e-01  3.011915227365894e-01 
7.000000e-01  1.706086337593050e-01 
7.050000e-01  7.306790989537400e-02 
7.100000e-01  1.761481662969096e-02 
7.150000e-01  4.482530061803696e-03 
7.200000e-01  4.803129362963938e-03 
7.250000e-01  4.750733364542657e-03 
7.300000e-01  4.758792448191830e-03 
7.350000e-01  4.757330221623686e-03 
7.400000e-01  4.758227208705226e-03 
7.450000e-01  4.753183263271753e-03 
7.500000e-01  4.784876910404263e-03 
7.550000e-01  4.586857506519627e-03 
7.600000e-01  6.131255655520760e-03 
7.650000e-01  3.495670709218919e-02 
7.700000e-01  1.080091466113529e-01 
7.750000e-01  2.200933699987696e-01 
7.800000e-01  3.603631305149648e-01 
7.850000e-01  5.147619244872599e-01 
7.900000e-01  6.676710221663072e-01 
7.950000e-01  8.036356592875523e-01 
8.000000e-01  9.090797299419662e-01 
8.050000e-01  9.739547380458637e-01 
8.100000e-01  9.949365432162348e-01 
8.150000e-01  9.952873937492360e-01 
8.200000e-01  9.952350505330525e-01 
8.250000e-01  9.952433789326369e-01 
8.300000e-01  9.952412301916811e-01 
8.350000e-01  9.952467667571898e-01 
8.400000e-01  9.952122018205825e-01 
8.450000e-01  9.954267860847572e-01 
8.500000e-01  9.805541767780986e-01 
8.550000e-01  9.228293781108472e-01 
8.600000e-01  8.233549154512708e-01 
8.650000e-01  6.914284133642431e-01 
8.700000e-01  5.401717823894163e-01 
8.750000e-01  3.848569582126238e-01 
8.800000e-01  2.412026925056353e-01 
8.850000e-01  1.236405746863293e-01 
8.900000e-01  4.365553004610849e-02 
8.950000e-01  7.706962593851409e-03 
9.000000e-01  4.465483420593926e-03 
9.050000e-01  4.805142630466040e-03 
9.100000e-01  4.750238726812805e-03 
9.150000e-01  4.754793071951748e-03 
9.200000e-01  4.779886286009878e-03 
9.250000e-01  4.614894997591162e-03 
9.300000e-01  5.857079953881563e-03 
9.350000e-01  3.302563761169609e-02 
9.400000e-01  1.044096161448754e-01 
9.450000e-01  2.151544155697768e-01 
9.500000e-01  3.545721766621203e-01 
9.550000e-01  5.087011066085668e-01 
9.600000e-01  6.619520463031686e-01 
9.650000e-01  7.988324747096468e-01 
9.700000e-01  9.056637257160528e-01 
9.750000e-01  9.722278431267475e-01 
9.800000e-01  9.947673678111617e-01 
9.850000e-01  9.953105253816028e-01 
9.900000e-01  9.952315688221582e-01 
9.950000e-01  9.952440789247793e-01 
1.000000e+00  9.952418322108392e-01 
