TITLE ="t=0.004230" 
VARIABLES = "x"                 "phi" 
ZONE I=201, ZONETYPE=Ordered, DATAPACKING=POINT
0.000000e+00  1.008955461947824e+00 
5.000000e-03  8.323090944535926e-01 
1.000000e-02  6.587652097413816e-01 
1.500000e-02  5.251509434321664e-01 
2.000000e-02  4.269048087303279e-01 
2.500000e-02  3.662383257943140e-01 
3.000000e-02  3.425677907885095e-01 
3.500000e-02  3.491853459172847e-01 
4.000000e-02  3.762105906312226e-01 
4.500000e-02  4.133534936227576e-01 
5.000000e-02  4.516801016756998e-01 
5.500000e-02  4.846896945898371e-01 
6.000000e-02  5.087484054693918e-01 
6.500000e-02  5.229343751305439e-01 
7.000000e-02  5.284294294049626e-01 
7.500000e-02  5.276574330311332e-01 
8.000000e-02  5.234013885544287e-01 
8.500000e-02  5.180964181594552e-01 
9.000000e-02  5.134093642432961e-01 
9.500000e-02  5.101209007875154e-01 
1.000000e-01  5.082519837643674e-01 
1.050000e-01  5.073345604905767e-01 
1.100000e-01  5.067187491137395e-01 
1.150000e-01  5.058296334380424e-01 
1.200000e-01  5.043242258054509e-01 
1.250000e-01  5.021389461607242e-01 
1.300000e-01  4.994490129117227e-01 
1.350000e-01  4.965775432738099e-01 
1.400000e-01  4.938934478837289e-01 
1.450000e-01  4.917272582326733e-01 
1.500000e-01  4.903190314705125e-01 
1.550000e-01  4.897985004823525e-01 
1.600000e-01  4.901887255945671e-01 
1.650000e-01  4.914218971164860e-01 
1.700000e-01  4.933583881887378e-01 
1.750000e-01  4.958049939074167e-01 
1.800000e-01  4.985327112572080e-01 
1.850000e-01  5.012965259103037e-01 
1.900000e-01  5.038590033828688e-01 
1.950000e-01  5.060168647359198e-01 
2.000000e-01  5.076267279388333e-01 
2.050000e-01  5.086243761056718e-01 
2.100000e-01  5.090322048681978e-01 
2.150000e-01  5.089519027097451e-01 
2.200000e-01  5.085430786753105e-01 
2.250000e-01  5.079921617266610e-01 
2.300000e-01  5.074782165853197e-01 
2.350000e-01  5.071426419303715e-01 
2.400000e-01  5.070680781798550e-01 
2.450000e-01  5.072689718784515e-01 
2.500000e-01  5.076932055428417e-01 
2.550000e-01  5.082320325617733e-01 
2.600000e-01  5.087348528206026e-01 
2.650000e-01  5.090260985545242e-01 
2.700000e-01  5.089230688804154e-01 
2.750000e-01  5.082550421227418e-01 
2.800000e-01  5.068845602538359e-01 
2.850000e-01  5.047309884459203e-01 
2.900000e-01  5.017944846090372e-01 
2.950000e-01  4.981761242338411e-01 
3.000000e-01  4.940881858809876e-01 
3.050000e-01  4.898485017066815e-01 
3.100000e-01  4.858548330653618e-01 
3.150000e-01  4.825392516238548e-01 
3.200000e-01  4.803075904469102e-01 
3.250000e-01  4.794737978281566e-01 
3.300000e-01  4.802020071664792e-01 
3.350000e-01  4.824692044125388e-01 
3.400000e-01  4.860581412116151e-01 
3.450000e-01  4.905841603618725e-01 
3.500000e-01  4.955522775684869e-01 
3.550000e-01  5.004340615516899e-01 
3.600000e-01  5.047493305776243e-01 
3.650000e-01  5.081365939009923e-01 
3.700000e-01  5.103987837822940e-01 
3.750000e-01  5.115164901137845e-01 
3.800000e-01  5.116282047106152e-01 
3.850000e-01  5.109841827587925e-01 
3.900000e-01  5.098857042797295e-01 
3.950000e-01  5.086236151832589e-01 
4.000000e-01  5.074287632682710e-01 
4.050000e-01  5.064429178886533e-01 
4.100000e-01  5.057132097315853e-01 
4.150000e-01  5.052075396637438e-01 
4.200000e-01  5.048441197448396e-01 
4.250000e-01  5.045261825672749e-01 
4.300000e-01  5.041731382990973e-01 
4.350000e-01  5.037416641437870e-01 
4.400000e-01  5.032335442868803e-01 
4.450000e-01  5.026905629141031e-01 
4.500000e-01  5.021795479008987e-01 
4.550000e-01  5.017722587784358e-01 
4.600000e-01  5.015250991216097e-01 
4.650000e-01  5.014628421224445e-01 
4.700000e-01  5.015691208782660e-01 
4.750000e-01  5.017848184219602e-01 
4.800000e-01  5.020140632277302e-01 
4.850000e-01  5.021364914157732e-01 
4.900000e-01  5.020238088143513e-01 
4.950000e-01  5.015583959476970e-01 
5.000000e-01  5.006516341264531e-01 
5.050000e-01  4.992597074383894e-01 
5.100000e-01  4.973948292904084e-01 
5.150000e-01  4.951301817756790e-01 
5.200000e-01  4.925973902286302e-01 
5.250000e-01  4.899761122891603e-01 
5.300000e-01  4.874762776283632e-01 
5.350000e-01  4.853145846035862e-01 
5.400000e-01  4.836879003517555e-01 
5.450000e-01  4.827470419480785e-01 
5.500000e-01  4.825748507571822e-01 
5.550000e-01  4.831723468348267e-01 
5.600000e-01  4.844559636114965e-01 
5.650000e-01  4.862674144176365e-01 
5.700000e-01  4.883957644468921e-01 
5.750000e-01  4.906090523125963e-01 
5.800000e-01  4.926907249906702e-01 
5.850000e-01  4.944746802399751e-01 
5.900000e-01  4.958722779343091e-01 
5.950000e-01  4.968855621715841e-01 
6.000000e-01  4.976031479514179e-01 
6.050000e-01  4.981784670608975e-01 
6.100000e-01  4.987937295738842e-01 
6.150000e-01  4.996162367042255e-01 
6.200000e-01  5.007557665521900e-01 
6.250000e-01  5.022320453558278e-01 
6.300000e-01  5.039596072698360e-01 
6.350000e-01  5.057539181139259e-01 
6.400000e-01  5.073582258436821e-01 
6.450000e-01  5.084862136959521e-01 
6.500000e-01  5.088721994172138e-01 
6.550000e-01  5.083191202980170e-01 
6.600000e-01  5.067351874320175e-01 
6.650000e-01  5.041526668695603e-01 
6.700000e-01  5.007260635101608e-01 
6.750000e-01  4.967110866916449e-01 
6.800000e-01  4.924292083012438e-01 
6.850000e-01  4.882246946003593e-01 
6.900000e-01  4.844214384737218e-01 
6.950000e-01  4.812859162707998e-01 
7.000000e-01  4.790006410594025e-01 
7.050000e-01  4.776502083536337e-01 
7.100000e-01  4.772199854026498e-01 
7.150000e-01  4.776060151763213e-01 
7.200000e-01  4.786338523528939e-01 
7.250000e-01  4.800836622890854e-01 
7.300000e-01  4.817187488424302e-01 
7.350000e-01  4.833145481898428e-01 
7.400000e-01  4.846850086032365e-01 
7.450000e-01  4.857033115655880e-01 
7.500000e-01  4.863142992658633e-01 
7.550000e-01  4.865369240055367e-01 
7.600000e-01  4.864565139094120e-01 
7.650000e-01  4.862084102460466e-01 
7.700000e-01  4.859561400619800e-01 
7.750000e-01  4.858682576466833e-01 
7.800000e-01  4.860979623194992e-01 
7.850000e-01  4.867685050413539e-01 
7.900000e-01  4.879655097503309e-01 
7.950000e-01  4.897352271886499e-01 
8.000000e-01  4.920860992201647e-01 
8.050000e-01  4.949904155343138e-01 
8.100000e-01  4.983835393625013e-01 
8.150000e-01  5.021599715847389e-01 
8.200000e-01  5.061678179818734e-01 
8.250000e-01  5.102052056360489e-01 
8.300000e-01  5.140230907588363e-01 
8.350000e-01  5.173382499704122e-01 
8.400000e-01  5.198580678730563e-01 
8.450000e-01  5.213155422435621e-01 
8.500000e-01  5.215096038390751e-01 
8.550000e-01  5.203433823442108e-01 
8.600000e-01  5.178522517268113e-01 
8.650000e-01  5.142147249474226e-01 
8.700000e-01  5.097423307106838e-01 
8.750000e-01  5.048487528103675e-01 
8.800000e-01  5.000026958093474e-01 
8.850000e-01  4.956721223487360e-01 
8.900000e-01  4.922689604644201e-01 
8.950000e-01  4.901028627916355e-01 
9.000000e-01  4.893503802278004e-01 
9.050000e-01  4.900426539074429e-01 
9.100000e-01  4.920712867134601e-01 
9.150000e-01  4.952092304621364e-01 
9.200000e-01  4.991418466866437e-01 
9.250000e-01  5.035029076156869e-01 
9.300000e-01  5.079109712971474e-01 
9.350000e-01  5.120028305512722e-01 
9.400000e-01  5.154620906030909e-01 
9.450000e-01  5.180419775957451e-01 
9.500000e-01  5.195820287257797e-01 
9.550000e-01  5.200183971305528e-01 
9.600000e-01  5.193873270810139e-01 
9.650000e-01  5.178212014073179e-01 
9.700000e-01  5.155366845813262e-01 
9.750000e-01  5.128150098654077e-01 
9.800000e-01  5.099753518261674e-01 
9.850000e-01  5.073433044054786e-01 
9.900000e-01  5.052174850022821e-01 
9.950000e-01  5.038379411809103e-01 
1.000000e+00  5.033601547475207e-01 
