TITLE ="t=0.000298" 
VARIABLES = "x"                 "phi" 
ZONE I=201, ZONETYPE=Ordered, DATAPACKING=POINT
0.000000e+00  8.357311082969103e-01 
5.000000e-03  6.122814170412707e-01 
1.000000e-02  4.490830366109253e-01 
1.500000e-02  4.117782490867149e-01 
2.000000e-02  4.343311398965088e-01 
2.500000e-02  4.749559676587536e-01 
3.000000e-02  5.078400210600741e-01 
3.500000e-02  5.229707340363651e-01 
4.000000e-02  5.232133442477925e-01 
4.500000e-02  5.154278710749690e-01 
5.000000e-02  5.048740017626935e-01 
5.500000e-02  4.942147353427938e-01 
6.000000e-02  4.851419224469335e-01 
6.500000e-02  4.798576867437144e-01 
7.000000e-02  4.807701805013297e-01 
7.500000e-02  4.888452994771779e-01 
8.000000e-02  5.022763483876185e-01 
8.500000e-02  5.167583598596585e-01 
9.000000e-02  5.273168343906288e-01 
9.500000e-02  5.305422827263649e-01 
1.000000e-01  5.259429215458888e-01 
1.050000e-01  5.158291955406631e-01 
1.100000e-01  5.040536848312058e-01 
1.150000e-01  4.944155073959840e-01 
1.200000e-01  4.894249447755636e-01 
1.250000e-01  4.897186026962142e-01 
1.300000e-01  4.940957298357409e-01 
1.350000e-01  5.000427764504340e-01 
1.400000e-01  5.046147858754506e-01 
1.450000e-01  5.054897837014116e-01 
1.500000e-01  5.018823126140843e-01 
1.550000e-01  4.949307875559662e-01 
1.600000e-01  4.873110958653412e-01 
1.650000e-01  4.821677937245993e-01 
1.700000e-01  4.818056036509673e-01 
1.750000e-01  4.867273393552645e-01 
1.800000e-01  4.954465880770940e-01 
1.850000e-01  5.051329729708980e-01 
1.900000e-01  5.127737493595221e-01 
1.950000e-01  5.163401569925958e-01 
2.000000e-01  5.154823884873664e-01 
2.050000e-01  5.114942218450855e-01 
2.100000e-01  5.066000360850306e-01 
2.150000e-01  5.029113796750546e-01 
2.200000e-01  5.015527917474826e-01 
2.250000e-01  5.023739461225377e-01 
2.300000e-01  5.043494467299889e-01 
2.350000e-01  5.063667083838990e-01 
2.400000e-01  5.078688694871998e-01 
2.450000e-01  5.089425949767769e-01 
2.500000e-01  5.098676434343201e-01 
2.550000e-01  5.105699874527863e-01 
2.600000e-01  5.104960420409136e-01 
2.650000e-01  5.090607482105199e-01 
2.700000e-01  5.062986836291666e-01 
2.750000e-01  5.031153168597653e-01 
2.800000e-01  5.008265272818043e-01 
2.850000e-01  5.002687605518893e-01 
2.900000e-01  5.011520967489257e-01 
2.950000e-01  5.021631837299930e-01 
3.000000e-01  5.017368737224254e-01 
3.050000e-01  4.989159296676733e-01 
3.100000e-01  4.937334319352044e-01 
3.150000e-01  4.870273541508904e-01 
3.200000e-01  4.800537277123201e-01 
3.250000e-01  4.742735352074356e-01 
3.300000e-01  4.712918872168353e-01 
3.350000e-01  4.725952608074969e-01 
3.400000e-01  4.788768118263179e-01 
3.450000e-01  4.892712899871509e-01 
3.500000e-01  5.011913820767471e-01 
3.550000e-01  5.111990070908968e-01 
3.600000e-01  5.165810065213366e-01 
3.650000e-01  5.166652973836587e-01 
3.700000e-01  5.129893208479059e-01 
3.750000e-01  5.082213455653329e-01 
3.800000e-01  5.046169007799796e-01 
3.850000e-01  5.030490622049015e-01 
3.900000e-01  5.031124710130799e-01 
3.950000e-01  5.039581618496268e-01 
4.000000e-01  5.050596725787324e-01 
4.050000e-01  5.063481736509964e-01 
4.100000e-01  5.077961565073779e-01 
4.150000e-01  5.089948658795007e-01 
4.200000e-01  5.092012759539836e-01 
4.250000e-01  5.078533732938635e-01 
4.300000e-01  5.051128823871214e-01 
4.350000e-01  5.019540829690408e-01 
4.400000e-01  4.996765184001157e-01 
4.450000e-01  4.991624004566861e-01 
4.500000e-01  5.003796106106601e-01 
4.550000e-01  5.024385069900676e-01 
4.600000e-01  5.041232283303194e-01 
4.650000e-01  5.045331220997844e-01 
4.700000e-01  5.034679437219342e-01 
4.750000e-01  5.014178416994289e-01 
4.800000e-01  4.992664184908497e-01 
4.850000e-01  4.979077635156764e-01 
4.900000e-01  4.979122573130885e-01 
4.950000e-01  4.992851101833017e-01 
5.000000e-01  5.013592154073407e-01 
5.050000e-01  5.029198785103658e-01 
5.100000e-01  5.026390940872526e-01 
5.150000e-01  4.997254460165663e-01 
5.200000e-01  4.944716260525788e-01 
5.250000e-01  4.883174826587168e-01 
5.300000e-01  4.832693489636177e-01 
5.350000e-01  4.809199882735430e-01 
5.400000e-01  4.816164955446304e-01 
5.450000e-01  4.842869441509292e-01 
5.500000e-01  4.870562866525492e-01 
5.550000e-01  4.883047320780537e-01 
5.600000e-01  4.875618803481079e-01 
5.650000e-01  4.857394831438208e-01 
5.700000e-01  4.845926378112304e-01 
5.750000e-01  4.857204050260458e-01 
5.800000e-01  4.896438902779827e-01 
5.850000e-01  4.954392183158418e-01 
5.900000e-01  5.011129108051853e-01 
5.950000e-01  5.045405429750875e-01 
6.000000e-01  5.045125556639387e-01 
6.050000e-01  5.013631484821363e-01 
6.100000e-01  4.968433626575982e-01 
6.150000e-01  4.932780175088698e-01 
6.200000e-01  4.924398596614791e-01 
6.250000e-01  4.947525672245051e-01 
6.300000e-01  4.992541940215737e-01 
6.350000e-01  5.042871407927304e-01 
6.400000e-01  5.084239759641836e-01 
6.450000e-01  5.110190692052795e-01 
6.500000e-01  5.120946247866262e-01 
6.550000e-01  5.117924710364263e-01 
6.600000e-01  5.099425470606456e-01 
6.650000e-01  5.061591261580500e-01 
6.700000e-01  5.003930891043427e-01 
6.750000e-01  4.934434839421138e-01 
6.800000e-01  4.869158356927508e-01 
6.850000e-01  4.825226878495278e-01 
6.900000e-01  4.811327736686706e-01 
6.950000e-01  4.822030736108922e-01 
7.000000e-01  4.840111912796388e-01 
7.050000e-01  4.846016524505637e-01 
7.100000e-01  4.829095324006334e-01 
7.150000e-01  4.794061160951318e-01 
7.200000e-01  4.758790655586637e-01 
7.250000e-01  4.744499662002719e-01 
7.300000e-01  4.763699123285421e-01 
7.350000e-01  4.812723868491369e-01 
7.400000e-01  4.873095690016650e-01 
7.450000e-01  4.920873328135654e-01 
7.500000e-01  4.938552709906747e-01 
7.550000e-01  4.922885200510550e-01 
7.600000e-01  4.884831261355198e-01 
7.650000e-01  4.842746148863381e-01 
7.700000e-01  4.813506056953651e-01 
7.750000e-01  4.806445520097058e-01 
7.800000e-01  4.822168597776381e-01 
7.850000e-01  4.855009689328544e-01 
7.900000e-01  4.896503458963226e-01 
7.950000e-01  4.938083413530600e-01 
8.000000e-01  4.972865465860568e-01 
8.050000e-01  4.997068299127261e-01 
8.100000e-01  5.011050615715202e-01 
8.150000e-01  5.019210136515589e-01 
8.200000e-01  5.028244592643795e-01 
8.250000e-01  5.044427588082075e-01 
8.300000e-01  5.071372518154654e-01 
8.350000e-01  5.109257478744079e-01 
8.400000e-01  5.155089327251523e-01 
8.450000e-01  5.202804956365928e-01 
8.500000e-01  5.242843770631457e-01 
8.550000e-01  5.262537644865771e-01 
8.600000e-01  5.249278535209647e-01 
8.650000e-01  5.196664884525515e-01 
8.700000e-01  5.110680901511965e-01 
8.750000e-01  5.011201316445179e-01 
8.800000e-01  4.925907073872406e-01 
8.850000e-01  4.878411252518055e-01 
8.900000e-01  4.876819552005851e-01 
8.950000e-01  4.909707534646757e-01 
9.000000e-01  4.952562180718427e-01 
9.050000e-01  4.981423378906781e-01 
9.100000e-01  4.985939263089751e-01 
9.150000e-01  4.974286917154842e-01 
9.200000e-01  4.967227832394631e-01 
9.250000e-01  4.984961943525061e-01 
9.300000e-01  5.034556028284064e-01 
9.350000e-01  5.105202474250830e-01 
9.400000e-01  5.173854589990384e-01 
9.450000e-01  5.217726748500473e-01 
9.500000e-01  5.226258036689360e-01 
9.550000e-01  5.205609411454899e-01 
9.600000e-01  5.173342097352157e-01 
9.650000e-01  5.146933155668534e-01 
9.700000e-01  5.133510918645884e-01 
9.750000e-01  5.127242088055470e-01 
9.800000e-01  5.115709022293550e-01 
9.850000e-01  5.090615784567343e-01 
9.900000e-01  5.055253439472159e-01 
9.950000e-01  5.023432805937965e-01 
1.000000e+00  5.010603230825020e-01 
