TITLE ="t=187.103639" 
VARIABLES = "x"                 "phi" 
ZONE I=201, ZONETYPE=Ordered, DATAPACKING=POINT
0.000000e+00  1.016564405238806e+00 
5.000000e-03  9.243653553410796e-01 
1.000000e-02  8.056574282508966e-01 
1.500000e-02  6.583315100039940e-01 
2.000000e-02  4.970845835412212e-01 
2.500000e-02  3.382084432568731e-01 
3.000000e-02  1.977527583339007e-01 
3.500000e-02  8.973296741655744e-02 
4.000000e-02  2.441042708789485e-02 
4.500000e-02  4.739641336320287e-03 
5.000000e-02  4.699147566271796e-03 
5.500000e-02  4.626188502728839e-03 
6.000000e-02  5.451140581020634e-03 
6.500000e-02  3.002228039389697e-02 
7.000000e-02  9.880832346754288e-02 
7.500000e-02  2.074883717179187e-01 
8.000000e-02  3.456039226710678e-01 
8.500000e-02  4.993293033551746e-01 
9.000000e-02  6.531140939065593e-01 
9.500000e-02  7.914030370340382e-01 
1.000000e-01  9.003572334116237e-01 
1.050000e-01  9.695005214015717e-01 
1.100000e-01  9.944669654910735e-01 
1.150000e-01  9.953495203068264e-01 
1.200000e-01  9.952249440821902e-01 
1.250000e-01  9.952533733593137e-01 
1.300000e-01  9.951908710479102e-01 
1.350000e-01  9.955518705983603e-01 
1.400000e-01  9.832177309224445e-01 
1.450000e-01  9.288581783561527e-01 
1.500000e-01  8.322546000037075e-01 
1.550000e-01  7.023285429163443e-01 
1.600000e-01  5.519758822066674e-01 
1.650000e-01  3.963684622039469e-01 
1.700000e-01  2.512567965862194e-01 
1.750000e-01  1.312334626084656e-01 
1.800000e-01  4.806650521316572e-02 
1.850000e-01  8.733894350158958e-03 
1.900000e-01  4.489949938976191e-03 
1.950000e-01  4.435850720423177e-03 
2.000000e-01  1.338217572852612e-02 
2.050000e-01  6.267833289150083e-02 
2.100000e-01  1.548723206933006e-01 
2.150000e-01  2.816434310603805e-01 
2.200000e-01  4.304534686315039e-01 
2.250000e-01  5.863012524505197e-01 
2.300000e-01  7.334102118112792e-01 
2.350000e-01  8.569671734181604e-01 
2.400000e-01  9.447998498714804e-01 
2.450000e-01  9.892148585930846e-01 
2.500000e-01  9.956510623901992e-01 
2.550000e-01  9.951160422365584e-01 
2.600000e-01  9.956131097013314e-01 
2.650000e-01  9.846231468970723e-01 
2.700000e-01  9.322187910976354e-01 
2.750000e-01  8.373051391089293e-01 
2.800000e-01  7.085767713462315e-01 
2.850000e-01  5.587938924532865e-01 
2.900000e-01  4.030652787050792e-01 
2.950000e-01  2.571546038958043e-01 
3.000000e-01  1.357427418105436e-01 
3.050000e-01  5.075699994673531e-02 
3.100000e-01  9.461065867606089e-03 
3.150000e-01  4.388814904687132e-03 
3.200000e-01  4.819474748426688e-03 
3.250000e-01  4.743801810135276e-03 
3.300000e-01  4.783495209785498e-03 
3.350000e-01  4.602809707155206e-03 
3.400000e-01  5.969360048970146e-03 
3.450000e-01  3.383790894760866e-02 
3.500000e-01  1.059299621291247e-01 
3.550000e-01  2.172442112832419e-01 
3.600000e-01  3.570253077061311e-01 
3.650000e-01  5.112710374562556e-01 
3.700000e-01  6.643794254990465e-01 
3.750000e-01  8.008736796718686e-01 
3.800000e-01  9.071183465811848e-01 
3.850000e-01  9.729669053310808e-01 
3.900000e-01  9.948419017804724e-01 
3.950000e-01  9.953005399138012e-01 
4.000000e-01  9.952331554653236e-01 
4.050000e-01  9.952437921668890e-01 
4.100000e-01  9.952421495923314e-01 
4.150000e-01  9.952424226690622e-01 
4.200000e-01  9.952423952222378e-01 
4.250000e-01  9.952424229081146e-01 
4.300000e-01  9.952423894922975e-01 
4.350000e-01  9.952427016892278e-01 
4.400000e-01  9.952408076903877e-01 
4.450000e-01  9.952530183909154e-01 
4.500000e-01  9.951741094946003e-01 
4.550000e-01  9.956476063185504e-01 
4.600000e-01  9.879656369165865e-01 
4.650000e-01  9.410385854264232e-01 
4.700000e-01  8.509470478144274e-01 
4.750000e-01  7.257134941144571e-01 
4.800000e-01  5.777012127317452e-01 
4.850000e-01  4.218231595455506e-01 
4.900000e-01  2.738591613411158e-01 
4.950000e-01  1.487168435331219e-01 
5.000000e-01  5.874912428725742e-02 
5.050000e-01  1.196071739766955e-02 
5.100000e-01  4.352398843363340e-03 
5.150000e-01  4.825816376929045e-03 
5.200000e-01  4.746882082973748e-03 
5.250000e-01  4.759059306369502e-03 
5.300000e-01  4.757132628355989e-03 
5.350000e-01  4.757412451608851e-03 
5.400000e-01  4.757344392640620e-03 
5.450000e-01  4.757351902500132e-03 
5.500000e-01  4.757211695770812e-03 
5.550000e-01  4.757964765680868e-03 
5.600000e-01  4.753010460207876e-03 
5.650000e-01  4.784725513098735e-03 
5.700000e-01  4.586938554998805e-03 
5.750000e-01  6.129665270139772e-03 
5.800000e-01  3.494651365315312e-02 
5.850000e-01  1.079905664032225e-01 
5.900000e-01  2.200682245817980e-01 
5.950000e-01  3.603339745982553e-01 
6.000000e-01  5.147317295658729e-01 
6.050000e-01  6.676428473675723e-01 
6.100000e-01  8.036123115553577e-01 
6.150000e-01  9.090634353570890e-01 
6.200000e-01  9.739467878370708e-01 
6.250000e-01  9.949358973116719e-01 
6.300000e-01  9.952876305465244e-01 
6.350000e-01  9.952352469590545e-01 
6.400000e-01  9.952438349182949e-01 
6.450000e-01  9.952408410779611e-01 
6.500000e-01  9.952524582452895e-01 
6.550000e-01  9.951791175478707e-01 
6.600000e-01  9.956212947369179e-01 
6.650000e-01  9.901645529598162e-01 
6.700000e-01  9.479259694564244e-01 
6.750000e-01  8.620747453235393e-01 
6.800000e-01  7.400070785456965e-01 
6.850000e-01  5.937252491754850e-01 
6.900000e-01  4.379510921666429e-01 
6.950000e-01  2.884531930997214e-01 
7.000000e-01  1.603087733358227e-01 
7.050000e-01  6.621180881580896e-02 
7.100000e-01  1.474574673673146e-02 
7.150000e-01  4.385320287620871e-03 
7.200000e-01  4.820124713256677e-03 
7.250000e-01  4.747967245503062e-03 
7.300000e-01  4.759075004802636e-03 
7.350000e-01  4.757129914116289e-03 
7.400000e-01  4.758216286425341e-03 
7.450000e-01  4.752493436807103e-03 
7.500000e-01  4.788568313993454e-03 
7.550000e-01  4.564143336000033e-03 
7.600000e-01  6.371489342762864e-03 
7.650000e-01  3.651677125858454e-02 
7.700000e-01  1.108814341621501e-01 
7.750000e-01  2.240137044701746e-01 
7.800000e-01  3.649440501528093e-01 
7.850000e-01  5.195425998087714e-01 
7.900000e-01  6.721687472655515e-01 
7.950000e-01  8.073989905483205e-01 
8.000000e-01  9.117395784160756e-01 
8.050000e-01  9.752780224543623e-01 
8.100000e-01  9.950546894896652e-01 
8.150000e-01  9.952704568421501e-01 
8.200000e-01  9.952376724553766e-01 
8.250000e-01  9.952429835036383e-01 
8.300000e-01  9.952409400146718e-01 
8.350000e-01  9.952488933091203e-01 
8.400000e-01  9.951982857576669e-01 
8.450000e-01  9.955086780580352e-01 
8.500000e-01  9.821880206100375e-01 
8.550000e-01  9.264820350270320e-01 
8.600000e-01  8.287251418360946e-01 
8.650000e-01  6.979911996244992e-01 
8.700000e-01  5.472674005345597e-01 
8.750000e-01  3.917666644677708e-01 
8.800000e-01  2.472279360818097e-01 
8.850000e-01  1.281805510917993e-01 
8.900000e-01  4.628058010699852e-02 
8.950000e-01  8.303839077937383e-03 
9.000000e-01  4.433689546894759e-03 
9.050000e-01  4.810780459731578e-03 
9.100000e-01  4.749343407583670e-03 
9.150000e-01  4.755543173910411e-03 
9.200000e-01  4.776329001460162e-03 
9.250000e-01  4.636932564465345e-03 
9.300000e-01  5.658417001775704e-03 
9.350000e-01  3.150317373036758e-02 
9.400000e-01  1.015346285028937e-01 
9.450000e-01  2.111877899731233e-01 
9.500000e-01  3.499047660961623e-01 
9.550000e-01  5.038018123035866e-01 
9.600000e-01  6.573152434179472e-01 
9.650000e-01  7.949235992539310e-01 
9.700000e-01  9.028668432790923e-01 
9.750000e-01  9.707923555364967e-01 
9.800000e-01  9.946134762016645e-01 
9.850000e-01  9.953303851556962e-01 
9.900000e-01  9.952284776547827e-01 
9.950000e-01  9.952446750890275e-01 
1.000000e+00  9.952417674566008e-01 
