TITLE ="t=2.308942" 
VARIABLES = "x"                 "phi" 
ZONE I=201, ZONETYPE=Ordered, DATAPACKING=POINT
0.000000e+00  1.000004147297879e+00 
5.000000e-03  9.914130191220512e-01 
1.000000e-02  9.919013725293985e-01 
1.500000e-02  9.575604336234657e-01 
2.000000e-02  8.803151275111353e-01 
2.500000e-02  7.656053869982412e-01 
3.000000e-02  6.242774740389876e-01 
3.500000e-02  4.703243225682103e-01 
4.000000e-02  3.191947592544281e-01 
4.500000e-02  1.860597153485623e-01 
5.000000e-02  8.411183133358795e-02 
5.500000e-02  2.292312114630791e-02 
6.000000e-02  4.830882689623697e-03 
6.500000e-02  4.810052829586189e-03 
7.000000e-02  4.486593335023912e-03 
7.500000e-02  7.525343844616682e-03 
8.000000e-02  4.275039492296218e-02 
8.500000e-02  1.220301467871979e-01 
9.000000e-02  2.390330159696059e-01 
9.500000e-02  3.823426113558729e-01 
1.000000e-01  5.375675852702092e-01 
1.050000e-01  6.890003307548762e-01 
1.100000e-01  8.213503582139227e-01 
1.150000e-01  9.214486661710957e-01 
1.200000e-01  9.799176350810360e-01 
1.250000e-01  9.953849021929925e-01 
1.300000e-01  9.952398282767795e-01 
1.350000e-01  9.951038301060599e-01 
1.400000e-01  9.757961348671863e-01 
1.450000e-01  9.127892548736082e-01 
1.500000e-01  8.088896928601857e-01 
1.550000e-01  6.739551195601799e-01 
1.600000e-01  5.214460322327381e-01 
1.650000e-01  3.667729443483628e-01 
1.700000e-01  2.255845714634911e-01 
1.750000e-01  1.120393719823504e-01 
1.800000e-01  3.715525720207223e-02 
1.850000e-01  6.484437681986845e-03 
1.900000e-01  4.513460722395864e-03 
1.950000e-01  5.043397813694827e-03 
2.000000e-01  2.525122916851231e-02 
2.050000e-01  8.929217038020416e-02 
2.100000e-01  1.940470050338722e-01 
2.150000e-01  3.295513773422444e-01 
2.200000e-01  4.822805873313823e-01 
2.250000e-01  6.367996493680474e-01 
2.300000e-01  7.774766160886885e-01 
2.350000e-01  8.902097377995215e-01 
2.400000e-01  9.640763962951030e-01 
2.450000e-01  9.937209995037152e-01 
2.500000e-01  9.954288786212151e-01 
2.550000e-01  9.952011036143691e-01 
2.600000e-01  9.953183698669616e-01 
2.650000e-01  9.786566867287489e-01 
2.700000e-01  9.187339314562898e-01 
2.750000e-01  8.174092215052654e-01 
2.800000e-01  6.842167367987330e-01 
2.850000e-01  5.324206090399802e-01 
2.900000e-01  3.773518674548195e-01 
2.950000e-01  2.347016345599003e-01 
3.000000e-01  1.187892595015473e-01 
3.050000e-01  4.090681338335913e-02 
3.100000e-01  7.148607701961234e-03 
3.150000e-01  4.504629422436363e-03 
3.200000e-01  4.805024622334245e-03 
3.250000e-01  4.754078271036664e-03 
3.300000e-01  4.795711544510351e-03 
3.350000e-01  4.595451847655691e-03 
3.400000e-01  6.178556944663478e-03 
3.450000e-01  3.503257774781784e-02 
3.500000e-01  1.079125677237102e-01 
3.550000e-01  2.196732427530389e-01 
3.600000e-01  3.595472160600016e-01 
3.650000e-01  5.135659474254526e-01 
3.700000e-01  6.661994979964357e-01 
3.750000e-01  8.020757038481861e-01 
3.800000e-01  9.076900128149782e-01 
3.850000e-01  9.730514754595376e-01 
3.900000e-01  9.947804177111852e-01 
3.950000e-01  9.952355480163582e-01 
4.000000e-01  9.951309136728250e-01 
4.050000e-01  9.951120428711473e-01 
4.100000e-01  9.950861022425441e-01 
4.150000e-01  9.950688229878969e-01 
4.200000e-01  9.950588872637175e-01 
4.250000e-01  9.950570453359778e-01 
4.300000e-01  9.950631898912955e-01 
4.350000e-01  9.950771721781799e-01 
4.400000e-01  9.950958551764719e-01 
4.450000e-01  9.951324541518217e-01 
4.500000e-01  9.950871483056065e-01 
4.550000e-01  9.955752231377474e-01 
4.600000e-01  9.878876891960227e-01 
4.650000e-01  9.414884027432168e-01 
4.700000e-01  8.522843077859925e-01 
4.750000e-01  7.280548388428075e-01 
4.800000e-01  5.809444838965782e-01 
4.850000e-01  4.256736314654999e-01 
4.900000e-01  2.778681904815942e-01 
4.950000e-01  1.523327138585944e-01 
5.000000e-01  6.137815534209137e-02 
5.050000e-01  1.307200595864196e-02 
5.100000e-01  4.396615203008887e-03 
5.150000e-01  4.855427359007175e-03 
5.200000e-01  4.782086860226047e-03 
5.250000e-01  4.794100266088469e-03 
5.300000e-01  4.791886478779109e-03 
5.350000e-01  4.790800693306527e-03 
5.400000e-01  4.788581714796382e-03 
5.450000e-01  4.785710685323116e-03 
5.500000e-01  4.782113180542964e-03 
5.550000e-01  4.778674170014464e-03 
5.600000e-01  4.770510664663229e-03 
5.650000e-01  4.789873105699389e-03 
5.700000e-01  4.633415764876156e-03 
5.750000e-01  5.751796942752643e-03 
5.800000e-01  3.218675243011309e-02 
5.850000e-01  1.028075000452567e-01 
5.900000e-01  2.129281668608708e-01 
5.950000e-01  3.519388934819702e-01 
6.000000e-01  5.059254291527253e-01 
6.050000e-01  6.593157910323597e-01 
6.100000e-01  7.966032592661396e-01 
6.150000e-01  9.040646079364312e-01 
6.200000e-01  9.714061780351018e-01 
6.250000e-01  9.946800950169187e-01 
6.300000e-01  9.953216667188155e-01 
6.350000e-01  9.952296808281917e-01 
6.400000e-01  9.952445800048911e-01 
6.450000e-01  9.952409070074665e-01 
6.500000e-01  9.952510475844861e-01 
6.550000e-01  9.951886423378018e-01 
6.600000e-01  9.955683830699825e-01 
6.650000e-01  9.916514958434232e-01 
6.700000e-01  9.535333766587554e-01 
6.750000e-01  8.715008733677688e-01 
6.800000e-01  7.523512212188055e-01 
6.850000e-01  6.077522220224998e-01 
6.900000e-01  4.522398569782718e-01 
6.950000e-01  3.015543285212395e-01 
7.000000e-01  1.709043216612236e-01 
7.050000e-01  7.326755329175889e-02 
7.100000e-01  1.770212717702539e-02 
7.150000e-01  4.486374821540053e-03 
7.200000e-01  4.802469080167657e-03 
7.250000e-01  4.750839989756320e-03 
7.300000e-01  4.758780537126402e-03 
7.350000e-01  4.757336921884328e-03 
7.400000e-01  4.758227920313688e-03 
7.450000e-01  4.753201827546587e-03 
7.500000e-01  4.784780585043529e-03 
7.550000e-01  4.587455375324301e-03 
7.600000e-01  6.125178585859192e-03 
7.650000e-01  3.491574176041113e-02 
7.700000e-01  1.079332962883371e-01 
7.750000e-01  2.199895903219622e-01 
7.800000e-01  3.602416708473131e-01 
7.850000e-01  5.146349990457100e-01 
7.900000e-01  6.675514442347487e-01 
7.950000e-01  8.035354307354958e-01 
8.000000e-01  9.090086843970927e-01 
8.050000e-01  9.739191275019953e-01 
8.100000e-01  9.949332264072044e-01 
8.150000e-01  9.952878591992413e-01 
8.200000e-01  9.952349785043606e-01 
8.250000e-01  9.952433898953295e-01 
8.300000e-01  9.952412398075998e-01 
8.350000e-01  9.952467003081278e-01 
8.400000e-01  9.952126381356659e-01 
8.450000e-01  9.954241799369925e-01 
8.500000e-01  9.805070508265906e-01 
8.550000e-01  9.227259259702344e-01 
8.600000e-01  8.232037599626922e-01 
8.650000e-01  6.912443381432418e-01 
8.700000e-01  5.399732865222748e-01 
8.750000e-01  3.846641379829731e-01 
8.800000e-01  2.410350271420816e-01 
8.850000e-01  1.235147622435911e-01 
8.900000e-01  4.358343573654432e-02 
8.950000e-01  7.691405726202757e-03 
9.000000e-01  4.466402126082515e-03 
9.050000e-01  4.804981386495307e-03 
9.100000e-01  4.750264640175275e-03 
9.150000e-01  4.754773835155687e-03 
9.200000e-01  4.779977007816893e-03 
9.250000e-01  4.614337239096042e-03 
9.300000e-01  5.862281312672339e-03 
9.350000e-01  3.306400589405358e-02 
9.400000e-01  1.044816414062414e-01 
9.450000e-01  2.152535406895043e-01 
9.500000e-01  3.546886278945724e-01 
9.550000e-01  5.088231819255075e-01 
9.600000e-01  6.620674263248999e-01 
9.650000e-01  7.989295786611741e-01 
9.700000e-01  9.057330173326634e-01 
9.750000e-01  9.722631670784264e-01 
9.800000e-01  9.947710018463017e-01 
9.850000e-01  9.953100435710016e-01 
9.900000e-01  9.952316435127632e-01 
9.950000e-01  9.952440644935054e-01 
1.000000e+00  9.952418337608191e-01 
