TITLE ="t=0.357938" 
VARIABLES = "x"                 "mu" 
ZONE I=201, ZONETYPE=Ordered, DATAPACKING=POINT
0.000000e+00  4.863669537129939e-05 
5.000000e-03  4.150571609230240e-05 
1.000000e-02  2.914307963967325e-05 
1.500000e-02  1.751886373877145e-05 
2.000000e-02  7.008470994613416e-06 
2.500000e-02  -2.854990971100942e-06 
3.000000e-02  -1.263559997348117e-05 
3.500000e-02  -2.302537402725090e-05 
4.000000e-02  -3.510237775349106e-05 
4.500000e-02  -5.115625518055123e-05 
5.000000e-02  -7.823749579226066e-05 
5.500000e-02  -1.365008854731185e-04 
6.000000e-02  -1.325125334480279e-04 
6.500000e-02  -1.049402955814675e-04 
7.000000e-02  -7.535926828987325e-05 
7.500000e-02  -4.534614064862747e-05 
8.000000e-02  -1.433595909437519e-05 
8.500000e-02  1.872589533028217e-05 
9.000000e-02  5.532071113060892e-05 
9.500000e-02  9.771349812789039e-05 
1.000000e-01  1.499287360082342e-04 
1.050000e-01  2.161321355430313e-04 
1.100000e-01  2.914902882618821e-04 
1.150000e-01  2.511600321428204e-04 
1.200000e-01  1.765546714571025e-04 
1.250000e-01  1.103908847175259e-04 
1.300000e-01  5.119095011102522e-05 
1.350000e-01  -3.843718152405232e-06 
1.400000e-01  -5.697243938229052e-05 
1.450000e-01  -1.100938658918858e-04 
1.500000e-01  -1.647823337795020e-04 
1.550000e-01  -2.210455406814253e-04 
1.600000e-01  -2.637086938548111e-04 
1.650000e-01  -2.167752387324496e-04 
1.700000e-01  -1.313098064269004e-04 
1.750000e-01  -3.644402858481514e-05 
1.800000e-01  4.694815392685421e-05 
1.850000e-01  5.751038387406307e-05 
1.900000e-01  4.824103213087345e-05 
1.950000e-01  3.460771772037505e-05 
2.000000e-01  1.933659638222972e-05 
2.050000e-01  2.820203733708605e-06 
2.100000e-01  -1.523402406755082e-05 
2.150000e-01  -3.553982113854711e-05 
2.200000e-01  -5.939991096889321e-05 
2.250000e-01  -8.960447059796422e-05 
2.300000e-01  -1.345911376671726e-04 
2.350000e-01  -2.158304008348683e-04 
2.400000e-01  -2.821685633441816e-04 
2.450000e-01  -3.248697490774584e-04 
2.500000e-01  -3.433562653714057e-04 
2.550000e-01  -3.316412959517430e-04 
2.600000e-01  -2.770753594584744e-04 
2.650000e-01  -2.094021066405371e-04 
2.700000e-01  -1.441308193743147e-04 
2.750000e-01  -8.231341732652892e-05 
2.800000e-01  -2.279330666645612e-05 
2.850000e-01  3.590423329109417e-05 
2.900000e-01  9.520344939881833e-05 
2.950000e-01  1.562387746278666e-04 
3.000000e-01  2.189931509615928e-04 
3.050000e-01  2.784503840549554e-04 
3.100000e-01  3.083203985641080e-04 
3.150000e-01  2.922439200493184e-04 
3.200000e-01  2.560526342088287e-04 
3.250000e-01  2.009159567006677e-04 
3.300000e-01  1.303852555305222e-04 
3.350000e-01  5.961009429492110e-05 
3.400000e-01  4.108062199946126e-05 
3.450000e-01  3.701096718488593e-05 
3.500000e-01  3.522851631662313e-05 
3.550000e-01  3.271577967428323e-05 
3.600000e-01  2.754620887964476e-05 
3.650000e-01  1.681850252792073e-05 
3.700000e-01  -5.940998042017201e-06 
3.750000e-01  -5.930951896111351e-05 
3.800000e-01  -2.165458488142512e-04 
3.850000e-01  -8.823147749752822e-04 
3.900000e-01  -2.996699871211226e-03 
3.950000e-01  -5.169911318204604e-03 
4.000000e-01  -6.922145842108039e-03 
4.050000e-01  -7.479728090427937e-03 
4.100000e-01  -7.718527980071132e-03 
4.150000e-01  -7.869594933043469e-03 
4.200000e-01  -7.983871118664223e-03 
4.250000e-01  -8.074969755129722e-03 
4.300000e-01  -8.142355731688707e-03 
4.350000e-01  -8.171947826684182e-03 
4.400000e-01  -8.127524295794679e-03 
4.450000e-01  -7.944910087292742e-03 
4.500000e-01  -7.578146951705634e-03 
4.550000e-01  -7.086169880213316e-03 
4.600000e-01  -6.566366728536075e-03 
4.650000e-01  -6.054487721395681e-03 
4.700000e-01  -5.537837252921668e-03 
4.750000e-01  -4.980037329405516e-03 
4.800000e-01  -4.320048813302290e-03 
4.850000e-01  -3.446585929738500e-03 
4.900000e-01  -2.148500505718494e-03 
4.950000e-01  -2.422487791595434e-04 
5.000000e-01  1.465510243861771e-03 
5.050000e-01  2.308600873717539e-03 
5.100000e-01  2.686480491266870e-03 
5.150000e-01  2.868895123800046e-03 
5.200000e-01  2.961341367795315e-03 
5.250000e-01  3.005845613616440e-03 
5.300000e-01  3.019533425307876e-03 
5.350000e-01  3.006477048444900e-03 
5.400000e-01  2.953983616807003e-03 
5.450000e-01  2.780823071389276e-03 
5.500000e-01  2.234073487469293e-03 
5.550000e-01  1.673672765831867e-03 
5.600000e-01  1.141867532675010e-03 
5.650000e-01  6.357228760673961e-04 
5.700000e-01  1.459733214755359e-04 
5.750000e-01  -2.267426661961129e-04 
5.800000e-01  -2.376672603862791e-04 
5.850000e-01  -1.848833785421014e-04 
5.900000e-01  -1.246046155216626e-04 
5.950000e-01  -6.333159745264639e-05 
6.000000e-01  -6.594349603427596e-07 
6.050000e-01  6.564355933980416e-05 
6.100000e-01  1.395076220534482e-04 
6.150000e-01  2.290515200925983e-04 
6.200000e-01  3.589994514551317e-04 
6.250000e-01  6.146246946344054e-04 
6.300000e-01  9.140251703078041e-04 
6.350000e-01  1.159127396493291e-03 
6.400000e-01  1.356196345539789e-03 
6.450000e-01  1.489631078034683e-03 
6.500000e-01  1.549033638862385e-03 
6.550000e-01  1.526760099509184e-03 
6.600000e-01  1.424054379218745e-03 
6.650000e-01  1.112123343896653e-03 
6.700000e-01  7.481587995887590e-04 
6.750000e-01  4.895491862726221e-04 
6.800000e-01  2.826606787495028e-04 
6.850000e-01  9.703820388417894e-05 
6.900000e-01  -8.317137247166760e-05 
6.950000e-01  -2.709482463295003e-04 
7.000000e-01  -4.833922959526022e-04 
7.050000e-01  -7.565198397175844e-04 
7.100000e-01  -1.193385557317770e-03 
7.150000e-01  -1.904170955368721e-03 
7.200000e-01  -2.311545388954572e-03 
7.250000e-01  -2.599705471473058e-03 
7.300000e-01  -2.757855374975192e-03 
7.350000e-01  -2.775934792214703e-03 
7.400000e-01  -2.654195831855199e-03 
7.450000e-01  -2.403500423868350e-03 
7.500000e-01  -2.042112276694929e-03 
7.550000e-01  -1.601576615000059e-03 
7.600000e-01  -1.043047122809575e-03 
7.650000e-01  -6.217483488796997e-04 
7.700000e-01  -3.971334762502197e-04 
7.750000e-01  -2.384803777274567e-04 
7.800000e-01  -1.055996234487523e-04 
7.850000e-01  1.622024997558118e-05 
7.900000e-01  1.354433805379751e-04 
7.950000e-01  2.593858155689357e-04 
8.000000e-01  3.974501831605930e-04 
8.050000e-01  5.665697804188972e-04 
8.100000e-01  7.650507017182833e-04 
8.150000e-01  8.614750323238658e-04 
8.200000e-01  8.975751462185934e-04 
8.250000e-01  8.943241699665522e-04 
8.300000e-01  8.528880328979429e-04 
8.350000e-01  7.764857470965630e-04 
8.400000e-01  6.695885476596745e-04 
8.450000e-01  5.258529710774700e-04 
8.500000e-01  3.616268725366194e-04 
8.550000e-01  2.489303965983568e-04 
8.600000e-01  1.621642943282492e-04 
8.650000e-01  8.642236613757059e-05 
8.700000e-01  1.534420013255363e-05 
8.750000e-01  -5.513041121910632e-05 
8.800000e-01  -1.287467662398232e-04 
8.850000e-01  -2.104098540436401e-04 
8.900000e-01  -3.095485477605132e-04 
8.950000e-01  -4.524195063710496e-04 
9.000000e-01  -7.043199169680076e-04 
9.050000e-01  -9.062248940494374e-04 
9.100000e-01  -1.055783543997085e-03 
9.150000e-01  -1.140486728016125e-03 
9.200000e-01  -1.152524655920239e-03 
9.250000e-01  -1.096062517288480e-03 
9.300000e-01  -9.434907030458320e-04 
9.350000e-01  -6.703569585656816e-04 
9.400000e-01  -4.593677497588715e-04 
9.450000e-01  -2.926541531626162e-04 
9.500000e-01  -1.449159979170222e-04 
9.550000e-01  -3.451399814156319e-06 
9.600000e-01  1.412378637367438e-04 
9.650000e-01  3.001203725341365e-04 
9.700000e-01  4.927938123431743e-04 
9.750000e-01  7.747554273616183e-04 
9.800000e-01  1.302925223636926e-03 
9.850000e-01  1.762745029966686e-03 
9.900000e-01  2.083869378332056e-03 
9.950000e-01  2.292216434865747e-03 
1.000000e+00  2.363443009050939e-03 
