TITLE ="t=333.288398" 
VARIABLES = "x"                 "mu" 
ZONE I=201, ZONETYPE=Ordered, DATAPACKING=POINT
0.000000e+00  1.987242571738474e-05 
5.000000e-03  1.986977048895677e-05 
1.000000e-02  1.986288518807602e-05 
1.500000e-02  1.985420052210103e-05 
2.000000e-02  1.984398213401090e-05 
2.500000e-02  1.983153848904656e-05 
3.000000e-02  1.981538625726444e-05 
3.500000e-02  1.979247581248313e-05 
4.000000e-02  1.975561804760279e-05 
4.500000e-02  1.968354696258167e-05 
5.000000e-02  1.948678534277179e-05 
5.500000e-02  1.863751855496007e-05 
6.000000e-02  1.775064255801956e-05 
6.500000e-02  1.753596119586151e-05 
7.000000e-02  1.744833024594380e-05 
7.500000e-02  1.739442661161854e-05 
8.000000e-02  1.735093880060071e-05 
8.500000e-02  1.730773888867781e-05 
9.000000e-02  1.725588924333741e-05 
9.500000e-02  1.717937934537288e-05 
1.000000e-01  1.703076635663980e-05 
1.050000e-01  1.659030754636209e-05 
1.100000e-01  1.465630169210458e-05 
1.150000e-01  1.270323052527730e-05 
1.200000e-01  1.225631442543851e-05 
1.250000e-01  1.210418750685789e-05 
1.300000e-01  1.202438715587605e-05 
1.350000e-01  1.196878992421139e-05 
1.400000e-01  1.192084334446034e-05 
1.450000e-01  1.187069859731457e-05 
1.500000e-01  1.180616285448651e-05 
1.550000e-01  1.169790634504768e-05 
1.600000e-01  1.142784290395515e-05 
1.650000e-01  1.034908362622998e-05 
1.700000e-01  7.975897396587168e-06 
1.750000e-01  5.666035713432219e-06 
1.800000e-01  3.459963934090470e-06 
1.850000e-01  2.797510260328971e-06 
1.900000e-01  2.613663943430653e-06 
1.950000e-01  2.534054861470599e-06 
2.000000e-01  2.487016534603231e-06 
2.050000e-01  2.452641703737997e-06 
2.100000e-01  2.422619705077423e-06 
2.150000e-01  2.391054830759689e-06 
2.200000e-01  2.349079408019356e-06 
2.250000e-01  2.270005863093949e-06 
2.300000e-01  2.021176717004355e-06 
2.350000e-01  1.134539104508072e-06 
2.400000e-01  1.526191229905294e-07 
2.450000e-01  -8.166782746924839e-07 
2.500000e-01  -1.781586404229262e-06 
2.550000e-01  -2.786241557022902e-06 
2.600000e-01  -3.298790143437148e-06 
2.650000e-01  -3.415807577152888e-06 
2.700000e-01  -3.453958322624055e-06 
2.750000e-01  -3.470206474890415e-06 
2.800000e-01  -3.477177987955056e-06 
2.850000e-01  -3.478369128627644e-06 
2.900000e-01  -3.473927716250763e-06 
2.950000e-01  -3.460702484831342e-06 
3.000000e-01  -3.426454680329452e-06 
3.050000e-01  -3.312927470048582e-06 
3.100000e-01  -2.804902976483489e-06 
3.150000e-01  -1.972616671263804e-06 
3.200000e-01  -1.173756689980023e-06 
3.250000e-01  -3.686117893318483e-07 
3.300000e-01  4.301459317199046e-07 
3.350000e-01  1.262967881432711e-06 
3.400000e-01  1.709725147629502e-06 
3.450000e-01  1.815835918851933e-06 
3.500000e-01  1.854469962767937e-06 
3.550000e-01  1.875361743248425e-06 
3.600000e-01  1.889976188428106e-06 
3.650000e-01  1.902458369663409e-06 
3.700000e-01  1.915338691219131e-06 
3.750000e-01  1.931819749603283e-06 
3.800000e-01  1.959983923479972e-06 
3.850000e-01  2.034935827651624e-06 
3.900000e-01  2.346197883963006e-06 
3.950000e-01  2.872009109665601e-06 
4.000000e-01  3.376427173266077e-06 
4.050000e-01  3.884338961133455e-06 
4.100000e-01  4.391711156563337e-06 
4.150000e-01  4.899170121349969e-06 
4.200000e-01  5.406618246482577e-06 
4.250000e-01  5.914069085110189e-06 
4.300000e-01  6.421531691710705e-06 
4.350000e-01  6.928933470373333e-06 
4.400000e-01  7.436741457630005e-06 
4.450000e-01  7.941952519567555e-06 
4.500000e-01  8.463256041623208e-06 
4.550000e-01  8.852821714887808e-06 
4.600000e-01  8.943000887153627e-06 
4.650000e-01  8.968712187834934e-06 
4.700000e-01  8.978433344111223e-06 
4.750000e-01  8.981895170157580e-06 
4.800000e-01  8.981604611091427e-06 
4.850000e-01  8.977729650768010e-06 
4.900000e-01  8.968455157764378e-06 
4.950000e-01  8.947179312669775e-06 
5.000000e-01  8.885912589815792e-06 
5.050000e-01  8.630017447219554e-06 
5.100000e-01  7.985873921962077e-06 
5.150000e-01  7.355791724931603e-06 
5.200000e-01  6.723461899945579e-06 
5.250000e-01  6.091477092171023e-06 
5.300000e-01  5.459433786130458e-06 
5.350000e-01  4.827395356399972e-06 
5.400000e-01  4.195351708707117e-06 
5.450000e-01  3.563307606402076e-06 
5.500000e-01  2.931243821452947e-06 
5.550000e-01  2.299283646716868e-06 
5.600000e-01  1.666640279839917e-06 
5.650000e-01  1.038382641583877e-06 
5.700000e-01  3.832458299194402e-07 
5.750000e-01  1.472407020438311e-08 
5.800000e-01  -6.970395480913837e-08 
5.850000e-01  -9.761826752317539e-08 
5.900000e-01  -1.104651830250504e-07 
5.950000e-01  -1.173520504477966e-07 
6.000000e-01  -1.210243644327521e-07 
6.050000e-01  -1.222308963324728e-07 
6.100000e-01  -1.204040105545832e-07 
6.150000e-01  -1.122525557739352e-07 
6.200000e-01  -8.170058068228110e-08 
6.250000e-01  6.061009816579714e-08 
6.300000e-01  3.175975022995737e-07 
6.350000e-01  5.640418755884846e-07 
6.400000e-01  8.122166683665001e-07 
6.450000e-01  1.060084957702093e-06 
6.500000e-01  1.308260980799041e-06 
6.550000e-01  1.554726390621785e-06 
6.600000e-01  1.811640360830649e-06 
6.650000e-01  1.963269598569409e-06 
6.700000e-01  1.998191249428966e-06 
6.750000e-01  2.009853163066715e-06 
6.800000e-01  2.015444492090317e-06 
6.850000e-01  2.018730343858591e-06 
6.900000e-01  2.020895436533573e-06 
6.950000e-01  2.022388286537154e-06 
7.000000e-01  2.023335269009695e-06 
7.050000e-01  2.023514207234508e-06 
7.100000e-01  2.021421665877340e-06 
7.150000e-01  2.008265423544116e-06 
7.200000e-01  1.982435962392813e-06 
7.250000e-01  1.957655156503576e-06 
7.300000e-01  1.932703432307052e-06 
7.350000e-01  1.907778476248761e-06 
7.400000e-01  1.882850726879174e-06 
7.450000e-01  1.857920263435898e-06 
7.500000e-01  1.833018887724716e-06 
7.550000e-01  1.807939755945783e-06 
7.600000e-01  1.783964133049518e-06 
7.650000e-01  1.774257026793604e-06 
7.700000e-01  1.768314402633226e-06 
7.750000e-01  1.762823618146800e-06 
7.800000e-01  1.756815642921801e-06 
7.850000e-01  1.749526969861392e-06 
7.900000e-01  1.739775075658983e-06 
7.950000e-01  1.725084895096106e-06 
8.000000e-01  1.698910960359811e-06 
8.050000e-01  1.637773821817186e-06 
8.100000e-01  1.420527093637956e-06 
8.150000e-01  6.351763910430600e-07 
8.200000e-01  -2.273296091528704e-07 
8.250000e-01  -1.078807812999052e-06 
8.300000e-01  -1.931888875770951e-06 
8.350000e-01  -2.785539065086657e-06 
8.400000e-01  -3.633725291782946e-06 
8.450000e-01  -4.515677345699257e-06 
8.500000e-01  -4.944812844344672e-06 
8.550000e-01  -5.044055682386093e-06 
8.600000e-01  -5.077361804953805e-06 
8.650000e-01  -5.092183305952443e-06 
8.700000e-01  -5.099234324571088e-06 
8.750000e-01  -5.101608869140218e-06 
8.800000e-01  -5.099677795182575e-06 
8.850000e-01  -5.091324753640763e-06 
8.900000e-01  -5.067812170083251e-06 
8.950000e-01  -4.986777664607990e-06 
9.000000e-01  -4.621991292276620e-06 
9.050000e-01  -4.048929606582354e-06 
9.100000e-01  -3.498146803204201e-06 
9.150000e-01  -2.943572003564366e-06 
9.200000e-01  -2.390627899663966e-06 
9.250000e-01  -1.830851424966395e-06 
9.300000e-01  -1.318003363713663e-06 
9.350000e-01  -1.174788553169362e-06 
9.400000e-01  -1.134723900273626e-06 
9.450000e-01  -1.117693502313290e-06 
9.500000e-01  -1.108213398043048e-06 
9.550000e-01  -1.101993826231370e-06 
9.600000e-01  -1.097434855910237e-06 
9.650000e-01  -1.093812215030767e-06 
9.700000e-01  -1.090760787213822e-06 
9.750000e-01  -1.088138834920378e-06 
9.800000e-01  -1.086343771904034e-06 
9.850000e-01  -1.086125786731026e-06 
9.900000e-01  -1.086149587996214e-06 
9.950000e-01  -1.086148584645249e-06 
1.000000e+00  -1.086150002918954e-06 
