TITLE ="t=413.288398" 
VARIABLES = "x"                 "mu" 
ZONE I=201, ZONETYPE=Ordered, DATAPACKING=POINT
0.000000e+00  1.754556123062397e-05 
5.000000e-03  1.754375403741180e-05 
1.000000e-02  1.753926158796128e-05 
1.500000e-02  1.753364294001442e-05 
2.000000e-02  1.752703552442019e-05 
2.500000e-02  1.751898189708678e-05 
3.000000e-02  1.750851172210307e-05 
3.500000e-02  1.749362730335314e-05 
4.000000e-02  1.746960084559174e-05 
4.500000e-02  1.742235871572965e-05 
5.000000e-02  1.729213421672115e-05 
5.500000e-02  1.672535765207324e-05 
6.000000e-02  1.614191185730850e-05 
6.500000e-02  1.600071312961176e-05 
7.000000e-02  1.594270846511745e-05 
7.500000e-02  1.590653931829261e-05 
8.000000e-02  1.587687315113728e-05 
8.500000e-02  1.584692615767428e-05 
9.000000e-02  1.581049504797323e-05 
9.500000e-02  1.575621960184665e-05 
1.000000e-01  1.565031276183628e-05 
1.050000e-01  1.533670726299849e-05 
1.100000e-01  1.395523506714001e-05 
1.150000e-01  1.253992829978195e-05 
1.200000e-01  1.221286561926376e-05 
1.250000e-01  1.209782989641164e-05 
1.300000e-01  1.203423140500536e-05 
1.350000e-01  1.198687239923024e-05 
1.400000e-01  1.194291993657923e-05 
1.450000e-01  1.189348162055679e-05 
1.500000e-01  1.182555845812805e-05 
1.550000e-01  1.170550881266934e-05 
1.600000e-01  1.139531090620914e-05 
1.650000e-01  1.013596234449782e-05 
1.700000e-01  7.368775852128356e-06 
1.750000e-01  4.671489126685637e-06 
1.800000e-01  2.128250383746674e-06 
1.850000e-01  1.386898322831591e-06 
1.900000e-01  1.181149571736713e-06 
1.950000e-01  1.093224417064595e-06 
2.000000e-01  1.042921341722063e-06 
2.050000e-01  1.008068624266253e-06 
2.100000e-01  9.799321790555682e-07 
2.150000e-01  9.533930228801563e-07 
2.200000e-01  9.226137099434059e-07 
2.250000e-01  8.723528112178855e-07 
2.300000e-01  7.291632705899685e-07 
2.350000e-01  2.459748217083762e-07 
2.400000e-01  -2.801724607700665e-07 
2.450000e-01  -8.006035256814006e-07 
2.500000e-01  -1.318447895459660e-06 
2.550000e-01  -1.858046304045020e-06 
2.600000e-01  -2.142532558966655e-06 
2.650000e-01  -2.206582156860204e-06 
2.700000e-01  -2.226680548309217e-06 
2.750000e-01  -2.234596297665762e-06 
2.800000e-01  -2.237236465846333e-06 
2.850000e-01  -2.236380128084875e-06 
2.900000e-01  -2.231815480811448e-06 
2.950000e-01  -2.221114007539512e-06 
3.000000e-01  -2.195423993635144e-06 
3.050000e-01  -2.113319230550979e-06 
3.100000e-01  -1.749101956355039e-06 
3.150000e-01  -1.133855401195014e-06 
3.200000e-01  -5.436795943864378e-07 
3.250000e-01  5.120536791243416e-08 
3.300000e-01  6.413570040339335e-07 
3.350000e-01  1.256714411263690e-06 
3.400000e-01  1.588599332870897e-06 
3.450000e-01  1.667895844075285e-06 
3.500000e-01  1.697201597549345e-06 
3.550000e-01  1.713464381000149e-06 
3.600000e-01  1.725252957228045e-06 
3.650000e-01  1.735765429879340e-06 
3.700000e-01  1.747137616302513e-06 
3.750000e-01  1.762377497603458e-06 
3.800000e-01  1.789452957107217e-06 
3.850000e-01  1.863337390150144e-06 
3.900000e-01  2.173349316738286e-06 
3.950000e-01  2.700024833047151e-06 
4.000000e-01  3.205242641009895e-06 
4.050000e-01  3.713965652350295e-06 
4.100000e-01  4.222147784913468e-06 
4.150000e-01  4.730417286712868e-06 
4.200000e-01  5.238676181985756e-06 
4.250000e-01  5.746937923746369e-06 
4.300000e-01  6.255211971807757e-06 
4.350000e-01  6.763422553639787e-06 
4.400000e-01  7.272056489371485e-06 
4.450000e-01  7.777982360327190e-06 
4.500000e-01  8.300666605410028e-06 
4.550000e-01  8.684273060916289e-06 
4.600000e-01  8.772713080747944e-06 
4.650000e-01  8.798302855234720e-06 
4.700000e-01  8.808237543017184e-06 
4.750000e-01  8.812055694455490e-06 
4.800000e-01  8.812259658995372e-06 
4.850000e-01  8.809090027455544e-06 
4.900000e-01  8.800923040719583e-06 
4.950000e-01  8.781695168593117e-06 
5.000000e-01  8.725422814784671e-06 
5.050000e-01  8.488133419833310e-06 
5.100000e-01  7.905300541782755e-06 
5.150000e-01  7.336984233581629e-06 
5.200000e-01  6.766340278333840e-06 
5.250000e-01  6.196054136019222e-06 
5.300000e-01  5.625708012281960e-06 
5.350000e-01  5.055367495005055e-06 
5.400000e-01  4.485022174098410e-06 
5.450000e-01  3.914676560096414e-06 
5.500000e-01  3.344313286736346e-06 
5.550000e-01  2.774043575320991e-06 
5.600000e-01  2.203157748019458e-06 
5.650000e-01  1.636227925943057e-06 
5.700000e-01  1.045051605534627e-06 
5.750000e-01  7.182871937656743e-07 
5.800000e-01  6.430103991731737e-07 
5.850000e-01  6.177122837216355e-07 
5.900000e-01  6.057615154614650e-07 
5.950000e-01  5.990355080858484e-07 
6.000000e-01  5.950188099719303e-07 
6.050000e-01  5.929005520302794e-07 
6.100000e-01  5.928449628504953e-07 
6.150000e-01  5.967410386873663e-07 
6.200000e-01  6.142845419913177e-07 
6.250000e-01  6.995453392254882e-07 
6.300000e-01  8.515143630887159e-07 
6.350000e-01  9.972532684977571e-07 
6.400000e-01  1.144015273181891e-06 
6.450000e-01  1.290596348070415e-06 
6.500000e-01  1.437359816562847e-06 
6.550000e-01  1.583110600938420e-06 
6.600000e-01  1.735048232486960e-06 
6.650000e-01  1.824520285896130e-06 
6.700000e-01  1.845412587147963e-06 
6.750000e-01  1.852667311865861e-06 
6.800000e-01  1.856405182372107e-06 
6.850000e-01  1.858878943069494e-06 
6.900000e-01  1.860854946220341e-06 
6.950000e-01  1.862737471888800e-06 
7.000000e-01  1.864937448081156e-06 
7.050000e-01  1.868355226965675e-06 
7.100000e-01  1.876673897826546e-06 
7.150000e-01  1.909901962810086e-06 
7.200000e-01  1.971275113153837e-06 
7.250000e-01  2.030145565640989e-06 
7.300000e-01  2.089424971175249e-06 
7.350000e-01  2.148642010542855e-06 
7.400000e-01  2.207868042054641e-06 
7.450000e-01  2.267105918774727e-06 
7.500000e-01  2.326267678221833e-06 
7.550000e-01  2.385923681762799e-06 
7.600000e-01  2.442161909603786e-06 
7.650000e-01  2.456399297189488e-06 
7.700000e-01  2.457144880892994e-06 
7.750000e-01  2.454588053706743e-06 
7.800000e-01  2.450349769799770e-06 
7.850000e-01  2.444395894177487e-06 
7.900000e-01  2.435865402844275e-06 
7.950000e-01  2.422547515990359e-06 
8.000000e-01  2.398373849907892e-06 
8.050000e-01  2.341501340538860e-06 
8.100000e-01  2.139393281679187e-06 
8.150000e-01  1.399292046444141e-06 
8.200000e-01  5.800695497433365e-07 
8.250000e-01  -2.279216507814353e-07 
8.300000e-01  -1.037553343898027e-06 
8.350000e-01  -1.847732191338635e-06 
8.400000e-01  -2.652560422393994e-06 
8.450000e-01  -3.490419260112137e-06 
8.500000e-01  -3.911332040649627e-06 
8.550000e-01  -4.008428761163296e-06 
8.600000e-01  -4.040960535785345e-06 
8.650000e-01  -4.055599471990326e-06 
8.700000e-01  -4.062827736415500e-06 
8.750000e-01  -4.065715836850717e-06 
8.800000e-01  -4.064771828372033e-06 
8.850000e-01  -4.058330945159903e-06 
8.900000e-01  -4.039213280248925e-06 
8.950000e-01  -3.972626119120061e-06 
9.000000e-01  -3.670819334439934e-06 
9.050000e-01  -3.182961307664182e-06 
9.100000e-01  -2.714464825567828e-06 
9.150000e-01  -2.242678722881472e-06 
9.200000e-01  -1.772247498804364e-06 
9.250000e-01  -1.296266573391233e-06 
9.300000e-01  -8.582184168333890e-07 
9.350000e-01  -7.349750590722476e-07 
9.400000e-01  -7.006114489789867e-07 
9.450000e-01  -6.860466952800472e-07 
9.500000e-01  -6.779532784378468e-07 
9.550000e-01  -6.726497960359834e-07 
9.600000e-01  -6.687659496343108e-07 
9.650000e-01  -6.656823468686531e-07 
9.700000e-01  -6.630871661374518e-07 
9.750000e-01  -6.608591481885149e-07 
9.800000e-01  -6.593297350384784e-07 
9.850000e-01  -6.591371300509641e-07 
9.900000e-01  -6.591575139208174e-07 
9.950000e-01  -6.591566249897017e-07 
1.000000e+00  -6.591578398595734e-07 
