TITLE ="t=163.288398" 
VARIABLES = "x"                 "mu" 
ZONE I=201, ZONETYPE=Ordered, DATAPACKING=POINT
0.000000e+00  2.679397524243040e-05 
5.000000e-03  2.678842931583829e-05 
1.000000e-02  2.676995960831324e-05 
1.500000e-02  2.674556527771930e-05 
2.000000e-02  2.671683331177293e-05 
2.500000e-02  2.668203886704756e-05 
3.000000e-02  2.663724851080617e-05 
3.500000e-02  2.657443669130211e-05 
4.000000e-02  2.647505058579504e-05 
4.500000e-02  2.628588834006100e-05 
5.000000e-02  2.579344337146956e-05 
5.500000e-02  2.377171032021706e-05 
6.000000e-02  2.139876085624845e-05 
6.500000e-02  2.080737201734795e-05 
7.000000e-02  2.056150198028779e-05 
7.500000e-02  2.040872133892877e-05 
8.000000e-02  2.028471442249051e-05 
8.500000e-02  2.016097062752453e-05 
9.000000e-02  2.001175773240062e-05 
9.500000e-02  1.979016163940207e-05 
1.000000e-01  1.935516971289734e-05 
1.050000e-01  1.804605750520853e-05 
1.100000e-01  1.230566941840377e-05 
1.150000e-01  7.422864888203346e-06 
1.200000e-01  6.327214731478001e-06 
1.250000e-01  5.957831302108739e-06 
1.300000e-01  5.776476710885989e-06 
1.350000e-01  5.664992383483401e-06 
1.400000e-01  5.585275311089059e-06 
1.450000e-01  5.520853318946733e-06 
1.500000e-01  5.461698682976170e-06 
1.550000e-01  5.396032442987544e-06 
1.600000e-01  5.288116157509038e-06 
1.650000e-01  4.956809602894933e-06 
1.700000e-01  4.361253268157914e-06 
1.750000e-01  3.785922882992473e-06 
1.800000e-01  3.233406327178199e-06 
1.850000e-01  3.061651923909292e-06 
1.900000e-01  3.008453030558816e-06 
1.950000e-01  2.980394289210958e-06 
2.000000e-01  2.959035028715330e-06 
2.050000e-01  2.938417301737136e-06 
2.100000e-01  2.914577965041152e-06 
2.150000e-01  2.881918903532119e-06 
2.200000e-01  2.827267155533281e-06 
2.250000e-01  2.704919265299466e-06 
2.300000e-01  2.281377531044322e-06 
2.350000e-01  7.238913600838388e-07 
2.400000e-01  -1.010995776936097e-06 
2.450000e-01  -2.722219585553733e-06 
2.500000e-01  -4.427726821216102e-06 
2.550000e-01  -6.192317248398959e-06 
2.600000e-01  -6.983813450175095e-06 
2.650000e-01  -7.167751764403782e-06 
2.700000e-01  -7.229120820043431e-06 
2.750000e-01  -7.254991919501664e-06 
2.800000e-01  -7.265205923503567e-06 
2.850000e-01  -7.265115969010832e-06 
2.900000e-01  -7.254290266890064e-06 
2.950000e-01  -7.225749586029033e-06 
3.000000e-01  -7.152979008103654e-06 
3.050000e-01  -6.907016186868277e-06 
3.100000e-01  -5.820549375091463e-06 
3.150000e-01  -4.225998434289577e-06 
3.200000e-01  -2.689389503857786e-06 
3.250000e-01  -1.141811670733386e-06 
3.300000e-01  3.938089717220628e-07 
3.350000e-01  1.993870619316737e-06 
3.400000e-01  2.822107805082422e-06 
3.450000e-01  3.017702953643792e-06 
3.500000e-01  3.087703450900115e-06 
3.550000e-01  3.124011743139437e-06 
3.600000e-01  3.147766087163916e-06 
3.650000e-01  3.166241836075199e-06 
3.700000e-01  3.183144689031764e-06 
3.750000e-01  3.201925125405836e-06 
3.800000e-01  3.229763858094693e-06 
3.850000e-01  3.296443032560926e-06 
3.900000e-01  3.560290738925982e-06 
3.950000e-01  3.989129874268156e-06 
4.000000e-01  4.400765675619626e-06 
4.050000e-01  4.815205305513411e-06 
4.100000e-01  5.229209330765780e-06 
4.150000e-01  5.643281190040218e-06 
4.200000e-01  6.057342696744693e-06 
4.250000e-01  6.471405098527519e-06 
4.300000e-01  6.885475184068513e-06 
4.350000e-01  7.299499557410433e-06 
4.400000e-01  7.713823745182692e-06 
4.450000e-01  8.126228602643019e-06 
4.500000e-01  8.550558859545942e-06 
4.550000e-01  8.879899565299660e-06 
4.600000e-01  8.956564971267849e-06 
4.650000e-01  8.977171998528014e-06 
4.700000e-01  8.983924669849511e-06 
4.750000e-01  8.985113968764630e-06 
4.800000e-01  8.982693705658864e-06 
4.850000e-01  8.976443955554512e-06 
4.900000e-01  8.964010428164691e-06 
4.950000e-01  8.937531298722835e-06 
5.000000e-01  8.864617066208789e-06 
5.050000e-01  8.567780600455481e-06 
5.100000e-01  7.779789246868660e-06 
5.150000e-01  7.002639987912662e-06 
5.200000e-01  6.223769857324106e-06 
5.250000e-01  5.445161578110166e-06 
5.300000e-01  4.666506309696072e-06 
5.350000e-01  3.887852690256631e-06 
5.400000e-01  3.109192874493809e-06 
5.450000e-01  2.330531961064315e-06 
5.500000e-01  1.551846628387264e-06 
5.550000e-01  7.732870373151561e-07 
5.600000e-01  -6.105213207728175e-09 
5.650000e-01  -7.801561967897597e-07 
5.700000e-01  -1.586955431341292e-06 
5.750000e-01  -2.064703771816667e-06 
5.800000e-01  -2.172679902684155e-06 
5.850000e-01  -2.206739188388653e-06 
5.900000e-01  -2.221205739608712e-06 
5.950000e-01  -2.227720507763725e-06 
6.000000e-01  -2.229535041752571e-06 
6.050000e-01  -2.227065335575046e-06 
6.100000e-01  -2.218311113311176e-06 
6.150000e-01  -2.195233302834159e-06 
6.200000e-01  -2.120672884306374e-06 
6.250000e-01  -1.788033718287249e-06 
6.300000e-01  -1.156727969937299e-06 
6.350000e-01  -5.510514307332444e-07 
6.400000e-01  5.882897415122846e-08 
6.450000e-01  6.679657033548658e-07 
6.500000e-01  1.277851323368824e-06 
6.550000e-01  1.883581872843881e-06 
6.600000e-01  2.514711832028934e-06 
6.650000e-01  2.896452978301457e-06 
6.700000e-01  2.983541846518312e-06 
6.750000e-01  3.011676801404972e-06 
6.800000e-01  3.024415262805033e-06 
6.850000e-01  3.031144303157229e-06 
6.900000e-01  3.034652293395910e-06 
6.950000e-01  3.035692784062247e-06 
7.000000e-01  3.033704066437168e-06 
7.050000e-01  3.025466201000403e-06 
7.100000e-01  2.995550638231846e-06 
7.150000e-01  2.857435085639485e-06 
7.200000e-01  2.588209653823963e-06 
7.250000e-01  2.329800797786229e-06 
7.300000e-01  2.069626492265895e-06 
7.350000e-01  1.809722541578557e-06 
7.400000e-01  1.549784720775061e-06 
7.450000e-01  1.289788132409041e-06 
7.500000e-01  1.030205138787001e-06 
7.550000e-01  7.679907784429622e-07 
7.600000e-01  5.236789307857973e-07 
7.650000e-01  4.506889085762287e-07 
7.700000e-01  4.268776378665851e-07 
7.750000e-01  4.135241956101406e-07 
7.800000e-01  4.028195208650776e-07 
7.850000e-01  3.920604643084167e-07 
7.900000e-01  3.792281091643699e-07 
7.950000e-01  3.612063722200619e-07 
8.000000e-01  3.303678751625673e-07 
8.050000e-01  2.595972882427684e-07 
8.100000e-01  8.677594154089338e-09 
8.150000e-01  -8.750385326265932e-07 
8.200000e-01  -1.831797881458912e-06 
8.250000e-01  -2.777981298357904e-06 
8.300000e-01  -3.725693552247522e-06 
8.350000e-01  -4.673969028936172e-06 
8.400000e-01  -5.616885099599990e-06 
8.450000e-01  -6.593077255125596e-06 
8.500000e-01  -7.032934643192763e-06 
8.550000e-01  -7.135751974832384e-06 
8.600000e-01  -7.170655796481783e-06 
8.650000e-01  -7.186024188232113e-06 
8.700000e-01  -7.192955352776186e-06 
8.750000e-01  -7.194593745850252e-06 
8.800000e-01  -7.191071232402764e-06 
8.850000e-01  -7.179446602836457e-06 
8.900000e-01  -7.148031261195514e-06 
8.950000e-01  -7.039638036555895e-06 
9.000000e-01  -6.557739376905862e-06 
9.050000e-01  -5.848023977468340e-06 
9.100000e-01  -5.164114789258037e-06 
9.150000e-01  -4.475788749384502e-06 
9.200000e-01  -3.789603418467752e-06 
9.250000e-01  -3.093929191874886e-06 
9.300000e-01  -2.464253657978228e-06 
9.350000e-01  -2.291668837049680e-06 
9.400000e-01  -2.242973678664277e-06 
9.450000e-01  -2.222120711225828e-06 
9.500000e-01  -2.210460608584744e-06 
9.550000e-01  -2.202787350923809e-06 
9.600000e-01  -2.197149315643200e-06 
9.650000e-01  -2.192659604494323e-06 
9.700000e-01  -2.188869514378747e-06 
9.750000e-01  -2.185605530606652e-06 
9.800000e-01  -2.183385955345764e-06 
9.850000e-01  -2.183141179561637e-06 
9.900000e-01  -2.183170093353794e-06 
9.950000e-01  -2.183168951152454e-06 
1.000000e+00  -2.183170667135656e-06 
