TITLE ="t=0.000016" 
VARIABLES = "x"                 "mu" 
ZONE I=201, ZONETYPE=Ordered, DATAPACKING=POINT
0.000000e+00  -2.609409321432072e-02 
5.000000e-03  3.708661790874810e-03 
1.000000e-02  2.477228351725216e-02 
1.500000e-02  -1.159071231320799e-02 
2.000000e-02  -2.582002268691065e-02 
2.500000e-02  9.617139393375794e-03 
3.000000e-02  1.983400519952692e-02 
3.500000e-02  -8.373661878591650e-03 
4.000000e-02  -2.044554473642732e-02 
4.500000e-02  -4.568938027020564e-03 
5.000000e-02  1.526979667152467e-02 
5.500000e-02  2.392222102291819e-02 
6.000000e-02  1.034948733904328e-02 
6.500000e-02  -2.267841220856854e-02 
7.000000e-02  -3.655472504062270e-02 
7.500000e-02  -5.923427344607452e-03 
8.000000e-02  2.563403691653610e-02 
8.500000e-02  1.201800726722470e-02 
9.000000e-02  -1.047795836451846e-02 
9.500000e-02  3.205430893839896e-03 
1.000000e-01  1.493099403574287e-02 
1.050000e-01  -5.986523766025674e-03 
1.100000e-01  -1.358113093159680e-02 
1.150000e-01  3.264553984859350e-03 
1.200000e-01  7.460654386012154e-04 
1.250000e-01  -7.924414924496248e-03 
1.300000e-01  2.253901446164769e-03 
1.350000e-01  4.126739224046116e-04 
1.400000e-01  -1.194070897235301e-02 
1.450000e-01  8.863248769570342e-03 
1.500000e-01  3.043161382223609e-02 
1.550000e-01  -4.015001511905330e-04 
1.600000e-01  -3.117098979019497e-02 
1.650000e-01  -2.896509025644959e-03 
1.700000e-01  2.215456656731472e-02 
1.750000e-01  -8.773296903065574e-03 
1.800000e-01  -2.434916296819837e-02 
1.850000e-01  1.411417296241686e-02 
1.900000e-01  2.473795347417139e-02 
1.950000e-01  -1.232312699296178e-02 
2.000000e-01  -1.560364959954314e-02 
2.050000e-01  1.798122877387742e-02 
2.100000e-01  1.339329523240876e-02 
2.150000e-01  -2.044592065835900e-02 
2.200000e-01  -1.957104846956489e-02 
2.250000e-01  8.472273527189090e-03 
2.300000e-01  1.523837633221296e-02 
2.350000e-01  -2.572018822225909e-03 
2.400000e-01  -9.212880608987350e-03 
2.450000e-01  2.588688304869321e-03 
2.500000e-01  5.179433369917615e-03 
2.550000e-01  -7.173924928936147e-03 
2.600000e-01  -1.055250760833367e-02 
2.650000e-01  5.476518429738016e-04 
2.700000e-01  1.526510644320008e-02 
2.750000e-01  1.846132778079313e-02 
2.800000e-01  -8.567906983773296e-03 
2.850000e-01  -3.709017488263193e-02 
2.900000e-01  -1.468219244561805e-02 
2.950000e-01  2.997989979469745e-02 
3.000000e-01  3.208094033601358e-02 
3.050000e-01  2.765414997229973e-04 
3.100000e-01  -2.324943987250797e-02 
3.150000e-01  -2.093470157366805e-02 
3.200000e-01  4.993800866681396e-03 
3.250000e-01  2.682719195479510e-02 
3.300000e-01  1.529380337728313e-02 
3.350000e-01  -1.014452576912461e-02 
3.400000e-01  -2.095728608208062e-02 
3.450000e-01  -1.795965920101853e-02 
3.500000e-01  1.010480463177303e-04 
3.550000e-01  2.646012923260189e-02 
3.600000e-01  2.552898473591184e-02 
3.650000e-01  -2.057925371413737e-03 
3.700000e-01  -1.696821014385100e-02 
3.750000e-01  -1.590276864440263e-02 
3.800000e-01  -1.015194421753043e-02 
3.850000e-01  7.861280752650832e-03 
3.900000e-01  2.506935800756087e-02 
3.950000e-01  9.742627439015538e-03 
4.000000e-01  -2.566304629416315e-02 
4.050000e-01  -2.959557667718138e-02 
4.100000e-01  1.007872836482627e-02 
4.150000e-01  3.609827075847673e-02 
4.200000e-01  4.995493205911097e-03 
4.250000e-01  -3.518601561407780e-02 
4.300000e-01  -1.289167224655428e-02 
4.350000e-01  3.396597218420980e-02 
4.400000e-01  1.583776122419690e-02 
4.450000e-01  -3.337047000958544e-02 
4.500000e-01  -2.021034856993095e-02 
4.550000e-01  1.901887847382145e-02 
4.600000e-01  1.555510364506192e-02 
4.650000e-01  -1.321587626757173e-03 
4.700000e-01  -6.221768984991868e-04 
4.750000e-01  -6.286811343549754e-03 
4.800000e-01  -1.493260740419205e-02 
4.850000e-01  6.258410436921456e-04 
4.900000e-01  2.327305125677278e-02 
4.950000e-01  1.261165994114576e-02 
5.000000e-01  -2.354950355981822e-02 
5.050000e-01  -3.145878029619625e-02 
5.100000e-01  1.227596362012955e-02 
5.150000e-01  4.762491925382696e-02 
5.200000e-01  1.101223608839460e-02 
5.250000e-01  -3.921102943660604e-02 
5.300000e-01  -2.145286326684093e-02 
5.350000e-01  2.016772887915346e-02 
5.400000e-01  1.887683773080380e-02 
5.450000e-01  -4.959706007712696e-03 
5.500000e-01  -1.241395805351186e-02 
5.550000e-01  3.086680489358933e-04 
5.600000e-01  1.382017430390330e-02 
5.650000e-01  1.187019079224187e-02 
5.700000e-01  -2.844917423301792e-03 
5.750000e-01  -1.426648466349511e-02 
5.800000e-01  -1.247293830665238e-02 
5.850000e-01  2.729485338299606e-03 
5.900000e-01  2.186547835339426e-02 
5.950000e-01  1.535110890912013e-02 
6.000000e-01  -1.819048195093911e-02 
6.050000e-01  -2.128791700641664e-02 
6.100000e-01  1.877921257406115e-02 
6.150000e-01  2.815328226563891e-02 
6.200000e-01  -1.272393360349579e-02 
6.250000e-01  -3.700538902899497e-02 
6.300000e-01  -1.021389354159148e-02 
6.350000e-01  2.777886902136789e-02 
6.400000e-01  3.057290965449606e-02 
6.450000e-01  -4.003871652788276e-03 
6.500000e-01  -3.274515344354308e-02 
6.550000e-01  -1.784627622469413e-02 
6.600000e-01  1.685957598617539e-02 
6.650000e-01  2.395272175846941e-02 
6.700000e-01  8.623128770539735e-03 
6.750000e-01  -7.482560471326360e-03 
6.800000e-01  -2.098385198845868e-02 
6.850000e-01  -1.240134172360859e-02 
6.900000e-01  1.812114900648113e-02 
6.950000e-01  2.192460461765950e-02 
7.000000e-01  -9.627223891237248e-03 
7.050000e-01  -2.024863026108897e-02 
7.100000e-01  8.051829173340880e-03 
7.150000e-01  2.543437171837577e-02 
7.200000e-01  7.518020232570362e-03 
7.250000e-01  -1.352566269298125e-02 
7.300000e-01  -1.499644897285006e-02 
7.350000e-01  -7.585042024973547e-03 
7.400000e-01  7.742220215450095e-03 
7.450000e-01  2.772932195865302e-02 
7.500000e-01  1.735239433876967e-02 
7.550000e-01  -2.312254445713853e-02 
7.600000e-01  -2.359807282401555e-02 
7.650000e-01  2.057863859472297e-02 
7.700000e-01  2.605789888817034e-02 
7.750000e-01  -1.328359807026395e-02 
7.800000e-01  -2.548230760894193e-02 
7.850000e-01  4.106087509453736e-03 
7.900000e-01  2.696153261917444e-02 
7.950000e-01  9.873695755163260e-03 
8.000000e-01  -2.642995552610499e-02 
8.050000e-01  -2.040974560651896e-02 
8.100000e-01  2.750077648580804e-02 
8.150000e-01  3.292512647652112e-02 
8.200000e-01  -2.102557824144298e-02 
8.250000e-01  -3.895046946827136e-02 
8.300000e-01  4.544595687676053e-03 
8.350000e-01  2.905429856124814e-02 
8.400000e-01  6.766377068663995e-03 
8.450000e-01  -1.838022262148235e-02 
8.500000e-01  -1.599605824775195e-02 
8.550000e-01  3.956938382723962e-03 
8.600000e-01  1.166782940137430e-02 
8.650000e-01  1.665653731926877e-03 
8.700000e-01  1.665701161984560e-03 
8.750000e-01  8.889737232943352e-03 
8.800000e-01  -8.190918975665991e-03 
8.850000e-01  -2.579972543512988e-02 
8.900000e-01  -3.345558836798839e-03 
8.950000e-01  2.321909609470623e-02 
9.000000e-01  6.390357816057415e-03 
9.050000e-01  -1.502714660000587e-02 
9.100000e-01  -2.741629522932745e-03 
9.150000e-01  1.734109072293332e-02 
9.200000e-01  8.490700354474967e-03 
9.250000e-01  -1.807577524133425e-02 
9.300000e-01  -2.482642044858191e-02 
9.350000e-01  2.657417372595035e-03 
9.400000e-01  2.496787816070557e-02 
9.450000e-01  1.118195118973793e-02 
9.500000e-01  -1.431884639736659e-02 
9.550000e-01  -1.578712700595770e-02 
9.600000e-01  4.706087564681205e-03 
9.650000e-01  1.423226587219779e-02 
9.700000e-01  -4.301619265742643e-03 
9.750000e-01  -2.452430247486816e-02 
9.800000e-01  -7.235081706955523e-03 
9.850000e-01  2.617309822966633e-02 
9.900000e-01  2.269707138760410e-02 
9.950000e-01  -1.395450209381587e-02 
1.000000e+00  -3.455106119130964e-02 
