TITLE ="t=583.288398" 
VARIABLES = "x"                 "mu" 
ZONE I=201, ZONETYPE=Ordered, DATAPACKING=POINT
0.000000e+00  1.416968821169496e-05 
5.000000e-03  1.416835532811853e-05 
1.000000e-02  1.416521070997568e-05 
1.500000e-02  1.416132016019579e-05 
2.000000e-02  1.415674912866829e-05 
2.500000e-02  1.415117185784429e-05 
3.000000e-02  1.414390701519760e-05 
3.500000e-02  1.413354951797555e-05 
4.000000e-02  1.411675711657837e-05 
4.500000e-02  1.408349841403889e-05 
5.000000e-02  1.399066202673419e-05 
5.500000e-02  1.358266602361621e-05 
6.000000e-02  1.316429146206908e-05 
6.500000e-02  1.306284922382219e-05 
7.000000e-02  1.302060858207148e-05 
7.500000e-02  1.299354622141892e-05 
8.000000e-02  1.297064886736463e-05 
8.500000e-02  1.294686485489288e-05 
9.000000e-02  1.291726769289640e-05 
9.500000e-02  1.287250540674887e-05 
1.000000e-01  1.278464651266774e-05 
1.050000e-01  1.252553258188798e-05 
1.100000e-01  1.137587969187175e-05 
1.150000e-01  1.022142964486508e-05 
1.200000e-01  9.951424741553173e-06 
1.250000e-01  9.850173411334136e-06 
1.300000e-01  9.789687452561415e-06 
1.350000e-01  9.740898052950298e-06 
1.400000e-01  9.692093861129336e-06 
1.450000e-01  9.633482098347756e-06 
1.500000e-01  9.548417600294149e-06 
1.550000e-01  9.391009414526273e-06 
1.600000e-01  8.967039651668394e-06 
1.650000e-01  7.204316834509271e-06 
1.700000e-01  3.582983554623957e-06 
1.750000e-01  4.236094888849410e-08 
1.800000e-01  -3.109460829663211e-06 
1.850000e-01  -3.945022489345792e-06 
1.900000e-01  -4.182376991057073e-06 
1.950000e-01  -4.283517717112645e-06 
2.000000e-01  -4.338702149329929e-06 
2.050000e-01  -4.373137688320559e-06 
2.100000e-01  -4.395774433575787e-06 
2.150000e-01  -4.409421830814367e-06 
2.200000e-01  -4.411898588891927e-06 
2.250000e-01  -4.387462966845537e-06 
2.300000e-01  -4.245509386112433e-06 
2.350000e-01  -3.750923733291837e-06 
2.400000e-01  -3.235814189935865e-06 
2.450000e-01  -2.723215545426203e-06 
2.500000e-01  -2.213686108018050e-06 
2.550000e-01  -1.682495377924446e-06 
2.600000e-01  -1.392561076253714e-06 
2.650000e-01  -1.323387975547978e-06 
2.700000e-01  -1.297902272808726e-06 
2.750000e-01  -1.283775013865624e-06 
2.800000e-01  -1.273533370689223e-06 
2.850000e-01  -1.264394153338885e-06 
2.900000e-01  -1.254500030983770e-06 
2.950000e-01  -1.241237027880528e-06 
3.000000e-01  -1.217695287543243e-06 
3.050000e-01  -1.153640805118458e-06 
3.100000e-01  -8.850691565720305e-07 
3.150000e-01  -4.235385258351397e-07 
3.200000e-01  1.905439962571136e-08 
3.250000e-01  4.652005933358805e-07 
3.300000e-01  9.077930410810252e-07 
3.350000e-01  1.369291091928246e-06 
3.400000e-01  1.618438394159432e-06 
3.450000e-01  1.678296729830460e-06 
3.500000e-01  1.700718093166197e-06 
3.550000e-01  1.713427021129947e-06 
3.600000e-01  1.722892943486225e-06 
3.650000e-01  1.731596101120372e-06 
3.700000e-01  1.741307047457844e-06 
3.750000e-01  1.754692373538838e-06 
3.800000e-01  1.779010062813917e-06 
3.850000e-01  1.846313115094850e-06 
3.900000e-01  2.130284766876436e-06 
3.950000e-01  2.613159798336302e-06 
4.000000e-01  3.076360014056529e-06 
4.050000e-01  3.542774208154757e-06 
4.100000e-01  4.008692339884786e-06 
4.150000e-01  4.474690402184447e-06 
4.200000e-01  4.940678516819839e-06 
4.250000e-01  5.406668835378759e-06 
4.300000e-01  5.872670755723756e-06 
4.350000e-01  6.338609711908824e-06 
4.400000e-01  6.804964159482933e-06 
4.450000e-01  7.268655083119628e-06 
4.500000e-01  7.748785094768118e-06 
4.550000e-01  8.088565338575535e-06 
4.600000e-01  8.166340104693404e-06 
4.650000e-01  8.189361558674165e-06 
4.700000e-01  8.198613292089287e-06 
4.750000e-01  8.202478688730909e-06 
4.800000e-01  8.203211688216255e-06 
4.850000e-01  8.201103930876670e-06 
4.900000e-01  8.194878200033495e-06 
4.950000e-01  8.179571077512213e-06 
5.000000e-01  8.133512505047600e-06 
5.050000e-01  7.936091867810124e-06 
5.100000e-01  7.473913730344365e-06 
5.150000e-01  7.025580243757498e-06 
5.200000e-01  6.575014788060236e-06 
5.250000e-01  6.124792948424757e-06 
5.300000e-01  5.674514313345056e-06 
5.350000e-01  5.224241721410889e-06 
5.400000e-01  4.773965253449864e-06 
5.450000e-01  4.323688748912521e-06 
5.500000e-01  3.873398551105949e-06 
5.550000e-01  3.423182017316288e-06 
5.600000e-01  2.972481933289735e-06 
5.650000e-01  2.524888237662420e-06 
5.700000e-01  2.058251083779111e-06 
5.750000e-01  1.807396247805819e-06 
5.800000e-01  1.749086227101661e-06 
5.850000e-01  1.729009133739537e-06 
5.900000e-01  1.719172337927251e-06 
5.950000e-01  1.713280563270191e-06 
6.000000e-01  1.709305761432105e-06 
6.050000e-01  1.706451391691511e-06 
6.100000e-01  1.704441019799298e-06 
6.150000e-01  1.703492795709925e-06 
6.200000e-01  1.705524578315228e-06 
6.250000e-01  1.721743222932925e-06 
6.300000e-01  1.751137042864922e-06 
6.350000e-01  1.779329948062067e-06 
6.400000e-01  1.807721326664314e-06 
6.450000e-01  1.836078569066735e-06 
6.500000e-01  1.864471746517742e-06 
6.550000e-01  1.892670285558050e-06 
6.600000e-01  1.922063743004875e-06 
6.650000e-01  1.939820510479653e-06 
6.700000e-01  1.944675906895891e-06 
6.750000e-01  1.947030435726260e-06 
6.800000e-01  1.948858771445761e-06 
6.850000e-01  1.950684644370481e-06 
6.900000e-01  1.952827703696960e-06 
6.950000e-01  1.955718982644070e-06 
7.000000e-01  1.960287337485262e-06 
7.050000e-01  1.969310872559198e-06 
7.100000e-01  1.995035114732192e-06 
7.150000e-01  2.104921649900454e-06 
7.200000e-01  2.310460274490424e-06 
7.250000e-01  2.507627288069128e-06 
7.300000e-01  2.706161036232017e-06 
7.350000e-01  2.904484405375139e-06 
7.400000e-01  3.102837315740149e-06 
7.450000e-01  3.301215749757700e-06 
7.500000e-01  3.499407365800512e-06 
7.550000e-01  3.698801864283606e-06 
7.600000e-01  3.890127720388792e-06 
7.650000e-01  3.946709817367264e-06 
7.700000e-01  3.959035140832052e-06 
7.750000e-01  3.961455560964781e-06 
7.800000e-01  3.960178684935593e-06 
7.850000e-01  3.956436121698773e-06 
7.900000e-01  3.949914425005454e-06 
7.950000e-01  3.938844859808977e-06 
8.000000e-01  3.917952199655667e-06 
8.050000e-01  3.868127661724292e-06 
8.100000e-01  3.691295829106545e-06 
8.150000e-01  3.025670030769628e-06 
8.200000e-01  2.274897065763777e-06 
8.250000e-01  1.536018752324269e-06 
8.300000e-01  7.953819234482402e-07 
8.350000e-01  5.425824872219922e-08 
8.400000e-01  -6.818063764517478e-07 
8.450000e-01  -1.449084001054855e-06 
8.500000e-01  -1.857480977126563e-06 
8.550000e-01  -1.951597615927130e-06 
8.600000e-01  -1.983229189511717e-06 
8.650000e-01  -1.997932479705006e-06 
8.700000e-01  -2.005865939324024e-06 
8.750000e-01  -2.010118796985791e-06 
8.800000e-01  -2.011525225715977e-06 
8.850000e-01  -2.009393045791081e-06 
8.900000e-01  -1.999782108237252e-06 
8.950000e-01  -1.963232922694468e-06 
9.000000e-01  -1.792751536116275e-06 
9.050000e-01  -1.501257777444334e-06 
9.100000e-01  -1.221633456082320e-06 
9.150000e-01  -9.399970972103956e-07 
9.200000e-01  -6.591375302594098e-07 
9.250000e-01  -3.752075937496950e-07 
9.300000e-01  -1.121014591865301e-07 
9.350000e-01  -3.718515281576334e-08 
9.400000e-01  -1.640487355175889e-08 
9.450000e-01  -7.637601063468078e-09 
9.500000e-01  -2.779191025513226e-09 
9.550000e-01  3.984627272624215e-10 
9.600000e-01  2.722103858037319e-09 
9.650000e-01  4.564553823810323e-09 
9.700000e-01  6.113109273874279e-09 
9.750000e-01  7.440822076437054e-09 
9.800000e-01  8.356054114173830e-09 
9.850000e-01  8.477956767121673e-09 
9.900000e-01  8.465688950614999e-09 
9.950000e-01  8.466262202716420e-09 
1.000000e+00  8.465532891560378e-09 
