TITLE ="t=623.288398" 
VARIABLES = "x"                 "mu" 
ZONE I=201, ZONETYPE=Ordered, DATAPACKING=POINT
0.000000e+00  1.342199116764519e-05 
5.000000e-03  1.342059407788123e-05 
1.000000e-02  1.341733265402650e-05 
1.500000e-02  1.341330664048584e-05 
2.000000e-02  1.340857753482137e-05 
2.500000e-02  1.340280630336732e-05 
3.000000e-02  1.339528589613429e-05 
3.500000e-02  1.338455770644716e-05 
4.000000e-02  1.336714850460693e-05 
4.500000e-02  1.333261584899493e-05 
5.000000e-02  1.323597132443899e-05 
5.500000e-02  1.281046784306693e-05 
6.000000e-02  1.237365335521856e-05 
6.500000e-02  1.226790797148909e-05 
7.000000e-02  1.222393571896103e-05 
7.500000e-02  1.219574698940973e-05 
8.000000e-02  1.217186446996944e-05 
8.500000e-02  1.214702526665029e-05 
9.000000e-02  1.211609029439115e-05 
9.500000e-02  1.206930358050275e-05 
1.000000e-01  1.197757633756662e-05 
1.050000e-01  1.170776005951919e-05 
1.100000e-01  1.050913681212756e-05 
1.150000e-01  9.316900287301272e-06 
1.200000e-01  9.038102121491467e-06 
1.250000e-01  8.932842915954541e-06 
1.300000e-01  8.869697542210922e-06 
1.350000e-01  8.818636383727610e-06 
1.400000e-01  8.767466910063558e-06 
1.450000e-01  8.705903390052574e-06 
1.500000e-01  8.616342200565021e-06 
1.550000e-01  8.449979439317924e-06 
1.600000e-01  7.998914589216725e-06 
1.650000e-01  6.115495304992767e-06 
1.700000e-01  2.330943919650748e-06 
1.750000e-01  -1.374803581998699e-06 
1.800000e-01  -4.601656458627688e-06 
1.850000e-01  -5.435486799911623e-06 
1.900000e-01  -5.674679676157271e-06 
1.950000e-01  -5.776984899342922e-06 
2.000000e-01  -5.832419466239442e-06 
2.050000e-01  -5.866264119946764e-06 
2.100000e-01  -5.887295551645568e-06 
2.150000e-01  -5.897649010261780e-06 
2.200000e-01  -5.893018433999111e-06 
2.250000e-01  -5.849153565103334e-06 
2.300000e-01  -5.629143035441302e-06 
2.350000e-01  -4.907842762240505e-06 
2.400000e-01  -4.167076926162176e-06 
2.450000e-01  -3.428474812762095e-06 
2.500000e-01  -2.694516995494285e-06 
2.550000e-01  -1.929329353302136e-06 
2.600000e-01  -1.512839784422063e-06 
2.650000e-01  -1.414171447286684e-06 
2.700000e-01  -1.378455613321767e-06 
2.750000e-01  -1.359234125060703e-06 
2.800000e-01  -1.345849613010265e-06 
2.850000e-01  -1.334474008492420e-06 
2.900000e-01  -1.322799407898245e-06 
2.950000e-01  -1.307950942670976e-06 
3.000000e-01  -1.282745854549248e-06 
3.050000e-01  -1.216165139114958e-06 
3.100000e-01  -9.403651657166920e-07 
3.150000e-01  -4.680104588683861e-07 
3.200000e-01  -1.502931964513157e-08 
3.250000e-01  4.415863130331075e-07 
3.300000e-01  8.945648721217881e-07 
3.350000e-01  1.366891344362716e-06 
3.400000e-01  1.621788647360793e-06 
3.450000e-01  1.682937054654661e-06 
3.500000e-01  1.705759136554890e-06 
3.550000e-01  1.718622320786881e-06 
3.600000e-01  1.728135170840761e-06 
3.650000e-01  1.736813095970961e-06 
3.700000e-01  1.746420935678020e-06 
3.750000e-01  1.759572976627006e-06 
3.800000e-01  1.783339049925331e-06 
3.850000e-01  1.848897187312882e-06 
3.900000e-01  2.125146325814689e-06 
3.950000e-01  2.594738768016312e-06 
4.000000e-01  3.045198456487122e-06 
4.050000e-01  3.498783392218428e-06 
4.100000e-01  3.951885801047446e-06 
4.150000e-01  4.405065796208494e-06 
4.200000e-01  4.858235979037943e-06 
4.250000e-01  5.311408140084525e-06 
4.300000e-01  5.764591571474388e-06 
4.350000e-01  6.217712767407876e-06 
4.400000e-01  6.671243344262928e-06 
4.450000e-01  7.122148100770887e-06 
4.500000e-01  7.589250367774699e-06 
4.550000e-01  7.917185076211300e-06 
4.600000e-01  7.992157577545615e-06 
4.650000e-01  8.014454032018943e-06 
4.700000e-01  8.023475643852791e-06 
4.750000e-01  8.027303014803642e-06 
4.800000e-01  8.028119639307769e-06 
4.850000e-01  8.026222694869992e-06 
4.900000e-01  8.020411230956253e-06 
4.950000e-01  8.005975293969087e-06 
5.000000e-01  7.962268753147491e-06 
5.050000e-01  7.774286063154061e-06 
5.100000e-01  7.338686872489125e-06 
5.150000e-01  6.916540998302030e-06 
5.200000e-01  6.492224010751562e-06 
5.250000e-01  6.068241338493517e-06 
5.300000e-01  5.644203531977791e-06 
5.350000e-01  5.220171709127889e-06 
5.400000e-01  4.796136232742013e-06 
5.450000e-01  4.372100768034410e-06 
5.500000e-01  3.948052473866977e-06 
5.550000e-01  3.524073486448918e-06 
5.600000e-01  3.099639943950230e-06 
5.650000e-01  2.678126921441624e-06 
5.700000e-01  2.238708809429531e-06 
5.750000e-01  2.003700226024422e-06 
5.800000e-01  1.948989019728199e-06 
5.850000e-01  1.930077038616267e-06 
5.900000e-01  1.920760172187910e-06 
5.950000e-01  1.915131051854109e-06 
6.000000e-01  1.911274901398268e-06 
6.050000e-01  1.908419602727063e-06 
6.100000e-01  1.906246664352909e-06 
6.150000e-01  1.904777591285123e-06 
6.200000e-01  1.904982313825965e-06 
6.250000e-01  1.912849596038764e-06 
6.300000e-01  1.927798413705778e-06 
6.350000e-01  1.942135925252911e-06 
6.400000e-01  1.956575245889478e-06 
6.450000e-01  1.970997664744082e-06 
6.500000e-01  1.985438785346334e-06 
6.550000e-01  1.999781743644599e-06 
6.600000e-01  2.014731186504335e-06 
6.650000e-01  2.024051276411435e-06 
6.700000e-01  2.027058753474855e-06 
6.750000e-01  2.028887163369311e-06 
6.800000e-01  2.030550652577552e-06 
6.850000e-01  2.032373668131014e-06 
6.900000e-01  2.034632401105766e-06 
6.950000e-01  2.037780012749486e-06 
7.000000e-01  2.042851875429495e-06 
7.050000e-01  2.052985597260653e-06 
7.100000e-01  2.082040157417030e-06 
7.150000e-01  2.206415515222800e-06 
7.200000e-01  2.439630990159023e-06 
7.250000e-01  2.663354232897575e-06 
7.300000e-01  2.888626956533627e-06 
7.350000e-01  3.113660927874394e-06 
7.400000e-01  3.338728585783951e-06 
7.450000e-01  3.563822406553618e-06 
7.500000e-01  3.788720389387894e-06 
7.550000e-01  4.014879331797746e-06 
7.600000e-01  4.232612614081943e-06 
7.650000e-01  4.297908088489458e-06 
7.700000e-01  4.312557067234642e-06 
7.750000e-01  4.315947259081246e-06 
7.800000e-01  4.315231621104776e-06 
7.850000e-01  4.311896006844933e-06 
7.900000e-01  4.305732594679721e-06 
7.950000e-01  4.295052266252570e-06 
8.000000e-01  4.274716218447699e-06 
8.050000e-01  4.226087000154486e-06 
8.100000e-01  4.053607496098595e-06 
8.150000e-01  3.400175487925022e-06 
8.200000e-01  2.659569782524727e-06 
8.250000e-01  1.931092628720931e-06 
8.300000e-01  1.200817140347338e-06 
8.350000e-01  4.700686864772862e-07 
8.400000e-01  -2.556746275108468e-07 
8.450000e-01  -1.012301602912591e-06 
8.500000e-01  -1.419766586573397e-06 
8.550000e-01  -1.513708542643755e-06 
8.600000e-01  -1.545335921930690e-06 
8.650000e-01  -1.560164414158681e-06 
8.700000e-01  -1.568332941951114e-06 
8.750000e-01  -1.572954345393869e-06 
8.800000e-01  -1.574945643303746e-06 
8.850000e-01  -1.573838897018994e-06 
8.900000e-01  -1.566418671493797e-06 
8.950000e-01  -1.536585297576516e-06 
9.000000e-01  -1.395393932233109e-06 
9.050000e-01  -1.150861374660523e-06 
9.100000e-01  -9.163180498542894e-07 
9.150000e-01  -6.800818245761709e-07 
9.200000e-01  -4.444924793684523e-07 
9.250000e-01  -2.063603689323869e-07 
9.300000e-01  1.454882480832200e-08 
9.350000e-01  7.757464609423185e-08 
9.400000e-01  9.504194591757066e-08 
9.450000e-01  1.024059411451741e-07 
9.500000e-01  1.064848829456478e-07 
9.550000e-01  1.091519061894266e-07 
9.600000e-01  1.111016847444212e-07 
9.650000e-01  1.126473631518209e-07 
9.700000e-01  1.139462044868197e-07 
9.750000e-01  1.150595773633127e-07 
9.800000e-01  1.158275820249849e-07 
9.850000e-01  1.159307999533802e-07 
9.900000e-01  1.159205016107189e-07 
9.950000e-01  1.159209908365267e-07 
1.000000e+00  1.159203794501481e-07 
