TITLE ="t=103.288398" 
VARIABLES = "x"                 "mu" 
ZONE I=201, ZONETYPE=Ordered, DATAPACKING=POINT
0.000000e+00  1.970785267010518e-05 
5.000000e-03  1.970957148753480e-05 
1.000000e-02  1.971562588843774e-05 
1.500000e-02  1.972367758215517e-05 
2.000000e-02  1.973310010971369e-05 
2.500000e-02  1.974440961360836e-05 
3.000000e-02  1.975881753062765e-05 
3.500000e-02  1.977877783280747e-05 
4.000000e-02  1.980989468255552e-05 
4.500000e-02  1.986797704850132e-05 
5.000000e-02  2.001493110586135e-05 
5.500000e-02  2.058587412159585e-05 
6.000000e-02  2.111725536062317e-05 
6.500000e-02  2.118944790219337e-05 
7.000000e-02  2.116309555433410e-05 
7.500000e-02  2.109681589462781e-05 
8.000000e-02  2.099722868411093e-05 
8.500000e-02  2.085261982109195e-05 
9.000000e-02  2.062875961940851e-05 
9.500000e-02  2.023320163926432e-05 
1.000000e-01  1.935137695500208e-05 
1.050000e-01  1.643868856168899e-05 
1.100000e-01  3.927574336178757e-06 
1.150000e-01  -3.810908356913923e-06 
1.200000e-01  -5.592111015670311e-06 
1.250000e-01  -6.219584664831882e-06 
1.300000e-01  -6.528570666767341e-06 
1.350000e-01  -6.711440677495939e-06 
1.400000e-01  -6.830385575249525e-06 
1.450000e-01  -6.908129764296918e-06 
1.500000e-01  -6.947323405105821e-06 
1.550000e-01  -6.921026709465629e-06 
1.600000e-01  -6.673019563517395e-06 
1.650000e-01  -5.350540736623156e-06 
1.700000e-01  -3.239378385930444e-06 
1.750000e-01  -1.192130495470283e-06 
1.800000e-01  7.433418102367823e-07 
1.850000e-01  1.303635502974027e-06 
1.900000e-01  1.450894677221849e-06 
1.950000e-01  1.506478715677175e-06 
2.000000e-01  1.531206603229352e-06 
2.050000e-01  1.540642212969292e-06 
2.100000e-01  1.538735144405027e-06 
2.150000e-01  1.523398122955339e-06 
2.200000e-01  1.483037698751921e-06 
2.250000e-01  1.371462640782272e-06 
2.300000e-01  9.458512427396589e-07 
2.350000e-01  -6.096008006989009e-07 
2.400000e-01  -2.313931051307413e-06 
2.450000e-01  -3.998160152982808e-06 
2.500000e-01  -5.677711194053265e-06 
2.550000e-01  -7.406543595049266e-06 
2.600000e-01  -8.136013740076003e-06 
2.650000e-01  -8.306331487400070e-06 
2.700000e-01  -8.362803277386221e-06 
2.750000e-01  -8.385465727670588e-06 
2.800000e-01  -8.392663711636224e-06 
2.850000e-01  -8.389034746653118e-06 
2.900000e-01  -8.373263993950165e-06 
2.950000e-01  -8.336370731144747e-06 
3.000000e-01  -8.245131617769849e-06 
3.050000e-01  -7.936914997272325e-06 
3.100000e-01  -6.594416823404560e-06 
3.150000e-01  -4.714773047912755e-06 
3.200000e-01  -2.898830680583618e-06 
3.250000e-01  -1.070769575430503e-06 
3.300000e-01  7.434866949686104e-07 
3.350000e-01  2.632648673099257e-06 
3.400000e-01  3.587829418837580e-06 
3.450000e-01  3.813710700033245e-06 
3.500000e-01  3.894605552426412e-06 
3.550000e-01  3.936261392380771e-06 
3.600000e-01  3.963096047826797e-06 
3.650000e-01  3.983444285195714e-06 
3.700000e-01  4.001358714854352e-06 
3.750000e-01  4.020209712176335e-06 
3.800000e-01  4.046330123031312e-06 
3.850000e-01  4.105221911166039e-06 
3.900000e-01  4.331043711798687e-06 
3.950000e-01  4.688947349432572e-06 
4.000000e-01  5.032680302011032e-06 
4.050000e-01  5.378718984956836e-06 
4.100000e-01  5.724397993662101e-06 
4.150000e-01  6.070131767308859e-06 
4.200000e-01  6.415856088226559e-06 
4.250000e-01  6.761580367377595e-06 
4.300000e-01  7.107310162025603e-06 
4.350000e-01  7.453002679355820e-06 
4.400000e-01  7.798935881121133e-06 
4.450000e-01  8.143325767129099e-06 
4.500000e-01  8.497311552718372e-06 
4.550000e-01  8.775476111558283e-06 
4.600000e-01  8.840070744245037e-06 
4.650000e-01  8.856663099063156e-06 
4.700000e-01  8.861349701802000e-06 
4.750000e-01  8.861128377635508e-06 
4.800000e-01  8.857523373587042e-06 
4.850000e-01  8.850080829825907e-06 
4.900000e-01  8.836198519382100e-06 
4.950000e-01  8.807509248333043e-06 
5.000000e-01  8.729944484735097e-06 
5.050000e-01  8.417455734264011e-06 
5.100000e-01  7.572670025242874e-06 
5.150000e-01  6.736740372750747e-06 
5.200000e-01  5.899407778406359e-06 
5.250000e-01  5.062286785082999e-06 
5.300000e-01  4.225125862243237e-06 
5.350000e-01  3.387964719776177e-06 
5.400000e-01  2.550796892694849e-06 
5.450000e-01  1.713627509309174e-06 
5.500000e-01  8.764318301052314e-07 
5.550000e-01  3.936944179289839e-08 
5.600000e-01  -7.985782434517058e-07 
5.650000e-01  -1.630850017495855e-06 
5.700000e-01  -2.497937798098372e-06 
5.750000e-01  -3.023885785248986e-06 
5.800000e-01  -3.142208962893438e-06 
5.850000e-01  -3.178771332384374e-06 
5.900000e-01  -3.193737109084966e-06 
5.950000e-01  -3.199861354268816e-06 
6.000000e-01  -3.200594794586134e-06 
6.050000e-01  -3.196166482283035e-06 
6.100000e-01  -3.183863235855430e-06 
6.150000e-01  -3.153348738542143e-06 
6.200000e-01  -3.057514735616837e-06 
6.250000e-01  -2.634242147620194e-06 
6.300000e-01  -1.810131019921590e-06 
6.350000e-01  -1.019054778016014e-06 
6.400000e-01  -2.225621705963046e-07 
6.450000e-01  5.729732911570008e-07 
6.500000e-01  1.369478419786579e-06 
6.550000e-01  2.160610524528278e-06 
6.600000e-01  2.984610718569967e-06 
6.650000e-01  3.491206337992113e-06 
6.700000e-01  3.606679853105959e-06 
6.750000e-01  3.643716470941464e-06 
6.800000e-01  3.660353361176551e-06 
6.850000e-01  3.669035375334519e-06 
6.900000e-01  3.673432295989304e-06 
6.950000e-01  3.674504150403684e-06 
7.000000e-01  3.671431341200553e-06 
7.050000e-01  3.659746598562541e-06 
7.100000e-01  3.618242836505811e-06 
7.150000e-01  3.427941599961120e-06 
7.200000e-01  3.050437729085347e-06 
7.250000e-01  2.687932411065748e-06 
7.300000e-01  2.322980039946491e-06 
7.350000e-01  1.958401531013090e-06 
7.400000e-01  1.593776236768874e-06 
7.450000e-01  1.229062476603407e-06 
7.500000e-01  8.649600622319261e-07 
7.550000e-01  4.969645356006291e-07 
7.600000e-01  1.556018189006200e-07 
7.650000e-01  5.541436264878825e-08 
7.700000e-01  2.389920210774614e-08 
7.750000e-01  7.176353672394882e-09 
7.800000e-01  -5.502166728464122e-09 
7.850000e-01  -1.767162210808324e-08 
7.900000e-01  -3.169574234342563e-08 
7.950000e-01  -5.092489798195929e-08 
8.000000e-01  -8.333174302594503e-08 
8.050000e-01  -1.571391097445067e-07 
8.100000e-01  -4.183383799214737e-07 
8.150000e-01  -1.330649756958174e-06 
8.200000e-01  -2.314337213011814e-06 
8.250000e-01  -3.287650159442539e-06 
8.300000e-01  -4.262464197827530e-06 
8.350000e-01  -5.237811404652758e-06 
8.400000e-01  -6.208025188558725e-06 
8.450000e-01  -7.210196857385344e-06 
8.500000e-01  -7.648776331291570e-06 
8.550000e-01  -7.751867684767305e-06 
8.600000e-01  -7.787098429819757e-06 
8.650000e-01  -7.802627761325162e-06 
8.700000e-01  -7.809581775970537e-06 
8.750000e-01  -7.811105843525402e-06 
8.800000e-01  -7.807273663083971e-06 
8.850000e-01  -7.794942963475187e-06 
8.900000e-01  -7.761667817409940e-06 
8.950000e-01  -7.646266821954040e-06 
9.000000e-01  -7.135697824480266e-06 
9.050000e-01  -6.401031040353986e-06 
9.100000e-01  -5.692244834061534e-06 
9.150000e-01  -4.979017174754353e-06 
9.200000e-01  -4.268053531980274e-06 
9.250000e-01  -3.546839924325089e-06 
9.300000e-01  -2.897271499030072e-06 
9.350000e-01  -2.720493479393010e-06 
9.400000e-01  -2.670447798565145e-06 
9.450000e-01  -2.648954668172683e-06 
9.500000e-01  -2.636915618972388e-06 
9.550000e-01  -2.628983514838742e-06 
9.600000e-01  -2.623149828602491e-06 
9.650000e-01  -2.618500418071415e-06 
9.700000e-01  -2.614572132823416e-06 
9.750000e-01  -2.611186098824061e-06 
9.800000e-01  -2.608889548569753e-06 
9.850000e-01  -2.608645922261553e-06 
9.900000e-01  -2.608675581290767e-06 
9.950000e-01  -2.608674428707918e-06 
1.000000e+00  -2.608676183877183e-06 
