TITLE ="t=743.288398" 
VARIABLES = "x"                 "mu" 
ZONE I=201, ZONETYPE=Ordered, DATAPACKING=POINT
0.000000e+00  1.084863526384798e-05 
5.000000e-03  1.084688859182616e-05 
1.000000e-02  1.084294836100571e-05 
1.500000e-02  1.083811972211610e-05 
2.000000e-02  1.083245225659372e-05 
2.500000e-02  1.082553168703134e-05 
3.000000e-02  1.081650204837857e-05 
3.500000e-02  1.080359553331512e-05 
4.000000e-02  1.078258776437509e-05 
4.500000e-02  1.074070478171486e-05 
5.000000e-02  1.062246342540557e-05 
5.500000e-02  1.009901135385660e-05 
6.000000e-02  9.560019857146362e-06 
6.500000e-02  9.430863187581767e-06 
7.000000e-02  9.378027605779657e-06 
7.500000e-02  9.344598956823691e-06 
8.000000e-02  9.316576683884116e-06 
8.500000e-02  9.287689475282444e-06 
9.000000e-02  9.251992280624045e-06 
9.500000e-02  9.198412908032965e-06 
1.000000e-01  9.094306646067386e-06 
1.050000e-01  8.791622570897930e-06 
1.100000e-01  7.444427513839638e-06 
1.150000e-01  6.140462327125062e-06 
1.200000e-01  5.836622684666889e-06 
1.250000e-01  5.721119202011765e-06 
1.300000e-01  5.652259438420055e-06 
1.350000e-01  5.597265630453688e-06 
1.400000e-01  5.542846863907515e-06 
1.450000e-01  5.477991522548821e-06 
1.500000e-01  5.384034986284734e-06 
1.550000e-01  5.208869852384535e-06 
1.600000e-01  4.726697487328504e-06 
1.650000e-01  2.694474714643272e-06 
1.700000e-01  -1.128080103156297e-06 
1.750000e-01  -4.895920107240159e-06 
1.800000e-01  -7.897449900707937e-06 
1.850000e-01  -8.621489446701971e-06 
1.900000e-01  -8.836992351586580e-06 
1.950000e-01  -8.930980043079520e-06 
2.000000e-01  -8.981478030736336e-06 
2.050000e-01  -9.010878230358045e-06 
2.100000e-01  -9.026520103884754e-06 
2.150000e-01  -9.028647365163390e-06 
2.200000e-01  -9.008020020833116e-06 
2.250000e-01  -8.919940033519272e-06 
2.300000e-01  -8.513129998179486e-06 
2.350000e-01  -7.380032936882993e-06 
2.400000e-01  -6.257259227944183e-06 
2.450000e-01  -5.131684060061555e-06 
2.500000e-01  -4.014089069658735e-06 
2.550000e-01  -2.848988992827170e-06 
2.600000e-01  -2.225331782063168e-06 
2.650000e-01  -2.077851580971054e-06 
2.700000e-01  -2.024748752033767e-06 
2.750000e-01  -1.996582902273506e-06 
2.800000e-01  -1.977421116730495e-06 
2.850000e-01  -1.961636101893220e-06 
2.900000e-01  -1.946034059090711e-06 
2.950000e-01  -1.926973976105702e-06 
3.000000e-01  -1.895767893301116e-06 
3.050000e-01  -1.815200483219763e-06 
3.100000e-01  -1.484866248480668e-06 
3.150000e-01  -9.286057427872605e-07 
3.200000e-01  -3.950590412825516e-07 
3.250000e-01  1.427492822789193e-07 
3.300000e-01  6.762738340340338e-07 
3.350000e-01  1.232595740461788e-06 
3.400000e-01  1.533076858447918e-06 
3.450000e-01  1.604688930044975e-06 
3.500000e-01  1.630992784992634e-06 
3.550000e-01  1.645454420122945e-06 
3.600000e-01  1.655811344797345e-06 
3.650000e-01  1.664917779674746e-06 
3.700000e-01  1.674622859675138e-06 
3.750000e-01  1.687444471809811e-06 
3.800000e-01  1.709953448545240e-06 
3.850000e-01  1.770879640718063e-06 
3.900000e-01  2.025710333097880e-06 
3.950000e-01  2.459197861473340e-06 
4.000000e-01  2.875015272763138e-06 
4.050000e-01  3.293718424240491e-06 
4.100000e-01  3.711975475969233e-06 
4.150000e-01  4.130303712475557e-06 
4.200000e-01  4.548622440916777e-06 
4.250000e-01  4.966942503657130e-06 
4.300000e-01  5.385272866216304e-06 
4.350000e-01  5.803543272771239e-06 
4.400000e-01  6.222204521351248e-06 
4.450000e-01  6.638355009959320e-06 
4.500000e-01  7.069970988730388e-06 
4.550000e-01  7.366285116231648e-06 
4.600000e-01  7.433869754580383e-06 
4.650000e-01  7.454256802166423e-06 
4.700000e-01  7.462685430419128e-06 
4.750000e-01  7.466438406409584e-06 
4.800000e-01  7.467516485247899e-06 
4.850000e-01  7.466240820172289e-06 
4.900000e-01  7.461636697246580e-06 
4.950000e-01  7.449742715891948e-06 
5.000000e-01  7.412977480452932e-06 
5.050000e-01  7.253190818329550e-06 
5.100000e-01  6.893190509238705e-06 
5.150000e-01  6.545142561054702e-06 
5.200000e-01  6.195160706611288e-06 
5.250000e-01  5.845476766322846e-06 
5.300000e-01  5.495743949012167e-06 
5.350000e-01  5.146016683483072e-06 
5.400000e-01  4.796286414033576e-06 
5.450000e-01  4.446556269316443e-06 
5.500000e-01  4.096815714879243e-06 
5.550000e-01  3.747132160366097e-06 
5.600000e-01  3.397075809722983e-06 
5.650000e-01  3.049415752632284e-06 
5.700000e-01  2.687061924885866e-06 
5.750000e-01  2.495813967296450e-06 
5.800000e-01  2.451140199130701e-06 
5.850000e-01  2.435571460466346e-06 
5.900000e-01  2.427822210848238e-06 
5.950000e-01  2.423067619263805e-06 
6.000000e-01  2.419725425783313e-06 
6.050000e-01  2.417127946165354e-06 
6.100000e-01  2.414927550374730e-06 
6.150000e-01  2.412870921402424e-06 
6.200000e-01  2.410519363398167e-06 
6.250000e-01  2.406065674766809e-06 
6.300000e-01  2.399861209823239e-06 
6.350000e-01  2.393905148080384e-06 
6.400000e-01  2.387909904760987e-06 
6.450000e-01  2.381922882659099e-06 
6.500000e-01  2.375929371766140e-06 
6.550000e-01  2.369978843265188e-06 
6.600000e-01  2.363774371043522e-06 
6.650000e-01  2.360717933459339e-06 
6.700000e-01  2.361128369127223e-06 
6.750000e-01  2.362334493740335e-06 
6.800000e-01  2.363932970270441e-06 
6.850000e-01  2.365967949869407e-06 
6.900000e-01  2.368678508896561e-06 
6.950000e-01  2.372605603903252e-06 
7.000000e-01  2.379073238943140e-06 
7.050000e-01  2.392146950023630e-06 
7.100000e-01  2.429792741217088e-06 
7.150000e-01  2.591172203248264e-06 
7.200000e-01  2.896555400014676e-06 
7.250000e-01  3.189548820853988e-06 
7.300000e-01  3.484563889623756e-06 
7.350000e-01  3.779266649386787e-06 
7.400000e-01  4.074014298598427e-06 
7.450000e-01  4.368785671212251e-06 
7.500000e-01  4.663363169059015e-06 
7.550000e-01  4.959190186148599e-06 
7.600000e-01  5.246753805453660e-06 
7.650000e-01  5.336142895632828e-06 
7.700000e-01  5.357074464898908e-06 
7.750000e-01  5.363011589010388e-06 
7.800000e-01  5.363725061414403e-06 
7.850000e-01  5.361388370775549e-06 
7.900000e-01  5.356067169938071e-06 
7.950000e-01  5.346261161841010e-06 
8.000000e-01  5.327133665430119e-06 
8.050000e-01  5.281095376876290e-06 
8.100000e-01  5.118279364147009e-06 
8.150000e-01  4.489595183008353e-06 
8.200000e-01  3.765798132399729e-06 
8.250000e-01  3.055065266216707e-06 
8.300000e-01  2.342378616522746e-06 
8.350000e-01  1.629257146949006e-06 
8.400000e-01  9.210397609947471e-07 
8.450000e-01  1.825414128852778e-07 
8.500000e-01  -2.277439389233613e-07 
8.550000e-01  -3.225480697710359e-07 
8.600000e-01  -3.546733529155640e-07 
8.650000e-01  -3.701337375293087e-07 
8.700000e-01  -3.791588108032739e-07 
8.750000e-01  -3.849801033351971e-07 
8.800000e-01  -3.887762980056989e-07 
8.850000e-01  -3.907370936405296e-07 
8.900000e-01  -3.897255439233578e-07 
8.950000e-01  -3.791441465158815e-07 
9.000000e-01  -3.215641755935466e-07 
9.050000e-01  -2.171078179871796e-07 
9.100000e-01  -1.169389270853573e-07 
9.150000e-01  -1.604305329445380e-08 
9.200000e-01  8.458114549073994e-08 
9.250000e-01  1.862642993347905e-07 
9.300000e-01  2.807959919712186e-07 
9.350000e-01  3.078723398460787e-07 
9.400000e-01  3.153639127898280e-07 
9.450000e-01  3.185176056064640e-07 
9.500000e-01  3.202629014530555e-07 
9.550000e-01  3.214033814263869e-07 
9.600000e-01  3.222367609940739e-07 
9.650000e-01  3.228971429104525e-07 
9.700000e-01  3.234518292437492e-07 
9.750000e-01  3.239271086418605e-07 
9.800000e-01  3.242553968497973e-07 
9.850000e-01  3.243003175589299e-07 
9.900000e-01  3.242959280315515e-07 
9.950000e-01  3.242961532920976e-07 
1.000000e+00  3.242958955705267e-07 
