TITLE ="t=653.288398" 
VARIABLES = "x"                 "mu" 
ZONE I=201, ZONETYPE=Ordered, DATAPACKING=POINT
0.000000e+00  1.283193517323365e-05 
5.000000e-03  1.283046315158398e-05 
1.000000e-02  1.282705464265915e-05 
1.500000e-02  1.282285434677231e-05 
2.000000e-02  1.281792142391830e-05 
2.500000e-02  1.281190060044629e-05 
3.000000e-02  1.280405260599553e-05 
3.500000e-02  1.279285196932132e-05 
4.000000e-02  1.277466326014582e-05 
4.500000e-02  1.273854175121796e-05 
5.000000e-02  1.263724507556024e-05 
5.500000e-02  1.219065428797697e-05 
6.000000e-02  1.173177154221836e-05 
6.500000e-02  1.162089721732096e-05 
7.000000e-02  1.157491261759647e-05 
7.500000e-02  1.154547741000824e-05 
8.000000e-02  1.152056083568548e-05 
8.500000e-02  1.149466367876029e-05 
9.000000e-02  1.146243405626537e-05 
9.500000e-02  1.141373655100108e-05 
1.000000e-01  1.131841279823046e-05 
1.050000e-01  1.103870178179802e-05 
1.100000e-01  9.795200557953075e-06 
1.150000e-01  8.567396557220468e-06 
1.200000e-01  8.280454756748645e-06 
1.250000e-01  8.171763639233040e-06 
1.300000e-01  8.106522991878708e-06 
1.350000e-01  8.053813908222421e-06 
1.400000e-01  8.001051091995152e-06 
1.450000e-01  7.937611053850875e-06 
1.500000e-01  7.845291645886551e-06 
1.550000e-01  7.673480451007501e-06 
1.600000e-01  7.205557187955965e-06 
1.650000e-01  5.246141195500724e-06 
1.700000e-01  1.375366300749581e-06 
1.750000e-01  -2.420081939924442e-06 
1.800000e-01  -5.662413594152082e-06 
1.850000e-01  -6.484562040246262e-06 
1.900000e-01  -6.722371680376120e-06 
1.950000e-01  -6.824474039118086e-06 
2.000000e-01  -6.879583066117114e-06 
2.050000e-01  -6.912733801063892e-06 
2.100000e-01  -6.932478757379353e-06 
2.150000e-01  -6.940437072295079e-06 
2.200000e-01  -6.930769052489415e-06 
2.250000e-01  -6.872987289327527e-06 
2.300000e-01  -6.595839175529494e-06 
2.350000e-01  -5.723563220221089e-06 
2.400000e-01  -4.836646182920462e-06 
2.450000e-01  -3.951034208220425e-06 
2.500000e-01  -3.071185434565900e-06 
2.550000e-01  -2.153888407563487e-06 
2.600000e-01  -1.656179530192232e-06 
2.650000e-01  -1.538517112561323e-06 
2.700000e-01  -1.496155902790534e-06 
2.750000e-01  -1.473587798298526e-06 
2.800000e-01  -1.458104030286967e-06 
2.850000e-01  -1.445194542203749e-06 
2.900000e-01  -1.432242637727740e-06 
2.950000e-01  -1.416160747843159e-06 
3.000000e-01  -1.389449758685376e-06 
3.050000e-01  -1.319934232153999e-06 
3.100000e-01  -1.033800623888704e-06 
3.150000e-01  -5.455123170163816e-07 
3.200000e-01  -7.723737357732672e-08 
3.250000e-01  3.947918618153619e-07 
3.300000e-01  8.630613181241747e-07 
3.350000e-01  1.351331799661493e-06 
3.400000e-01  1.614795894026065e-06 
3.450000e-01  1.677901927257938e-06 
3.500000e-01  1.701366747189202e-06 
3.550000e-01  1.714515265946748e-06 
3.600000e-01  1.724167264210033e-06 
3.650000e-01  1.732899388008137e-06 
3.700000e-01  1.742486871892856e-06 
3.750000e-01  1.755512409948369e-06 
3.800000e-01  1.778910065916586e-06 
3.850000e-01  1.843208675749580e-06 
3.900000e-01  2.113750532869919e-06 
3.950000e-01  2.573586661598997e-06 
4.000000e-01  3.014687164613746e-06 
4.050000e-01  3.458847891407981e-06 
4.100000e-01  3.902535994269848e-06 
4.150000e-01  4.346299954722234e-06 
4.200000e-01  4.790054192936314e-06 
4.250000e-01  5.233810238866011e-06 
4.300000e-01  5.677577299962838e-06 
4.350000e-01  6.121282711181264e-06 
4.400000e-01  6.565392686676150e-06 
4.450000e-01  7.006906670301314e-06 
4.500000e-01  7.464427941879499e-06 
4.550000e-01  7.783774087993808e-06 
4.600000e-01  7.856726967810484e-06 
4.650000e-01  7.878498952943635e-06 
4.700000e-01  7.887353890064445e-06 
4.750000e-01  7.891154229854834e-06 
4.800000e-01  7.892032761435253e-06 
4.850000e-01  7.890291221973273e-06 
4.900000e-01  7.884785419907668e-06 
4.950000e-01  7.870994257813836e-06 
5.000000e-01  7.829039678672336e-06 
5.050000e-01  7.648130644913206e-06 
5.100000e-01  7.232011234262602e-06 
5.150000e-01  6.829010599406126e-06 
5.200000e-01  6.423891324495818e-06 
5.250000e-01  6.019098327320150e-06 
5.300000e-01  5.614251602147770e-06 
5.350000e-01  5.209410785371456e-06 
5.400000e-01  4.804566480763542e-06 
5.450000e-01  4.399722220756203e-06 
5.500000e-01  3.994865760578907e-06 
5.550000e-01  3.590075423462052e-06 
5.600000e-01  3.184851703958939e-06 
5.650000e-01  2.782412768407500e-06 
5.700000e-01  2.362900141005757e-06 
5.750000e-01  2.139342674538480e-06 
5.800000e-01  2.087244175010795e-06 
5.850000e-01  2.069189567958084e-06 
5.900000e-01  2.060264579916723e-06 
5.950000e-01  2.054843534019560e-06 
6.000000e-01  2.051095915473581e-06 
6.050000e-01  2.048271763733787e-06 
6.100000e-01  2.046032780845507e-06 
6.150000e-01  2.044290927091141e-06 
6.200000e-01  2.043477463633802e-06 
6.250000e-01  2.046612498099788e-06 
6.300000e-01  2.053419076936347e-06 
6.350000e-01  2.059945999930780e-06 
6.400000e-01  2.066520356087411e-06 
6.450000e-01  2.073087505523702e-06 
6.500000e-01  2.079663651505855e-06 
6.550000e-01  2.086195993538581e-06 
6.600000e-01  2.093003333595655e-06 
6.650000e-01  2.097562727148675e-06 
6.700000e-01  2.099541495216335e-06 
6.750000e-01  2.101091479548484e-06 
6.800000e-01  2.102683738254151e-06 
6.850000e-01  2.104531756359925e-06 
6.900000e-01  2.106890488109220e-06 
6.950000e-01  2.110232400474057e-06 
7.000000e-01  2.115669288978850e-06 
7.050000e-01  2.126591045664892e-06 
7.100000e-01  2.157982128774443e-06 
7.150000e-01  2.292478375949527e-06 
7.200000e-01  2.545189063683827e-06 
7.250000e-01  2.787620661624573e-06 
7.300000e-01  3.031730018792913e-06 
7.350000e-01  3.275580677255297e-06 
7.400000e-01  3.519467989618316e-06 
7.450000e-01  3.763381430969602e-06 
7.500000e-01  4.007095680770646e-06 
7.550000e-01  4.252092641210951e-06 
7.600000e-01  4.488541870411506e-06 
7.650000e-01  4.560130756160213e-06 
7.700000e-01  4.576442020187865e-06 
7.750000e-01  4.580517535186721e-06 
7.800000e-01  4.580193481323301e-06 
7.850000e-01  4.577137619807264e-06 
7.900000e-01  4.571216328895749e-06 
7.950000e-01  4.560794466710632e-06 
8.000000e-01  4.540823281678698e-06 
8.050000e-01  4.492976804487313e-06 
8.100000e-01  4.323371889031708e-06 
8.150000e-01  3.677738469949960e-06 
8.200000e-01  2.943218299511159e-06 
8.250000e-01  2.221026611426346e-06 
8.300000e-01  1.497002961134345e-06 
8.350000e-01  7.725163876960371e-07 
8.400000e-01  5.300089264105280e-08 
8.450000e-01  -6.971919035555718e-07 
8.500000e-01  -1.104569489927474e-06 
8.550000e-01  -1.198532671091018e-06 
8.600000e-01  -1.230213575159168e-06 
8.650000e-01  -1.245164640427466e-06 
8.700000e-01  -1.253526532536542e-06 
8.750000e-01  -1.258435094217047e-06 
8.800000e-01  -1.260870945331394e-06 
8.850000e-01  -1.260532655111207e-06 
8.900000e-01  -1.254737558164314e-06 
8.950000e-01  -1.229840271742669e-06 
9.000000e-01  -1.110140779228633e-06 
9.050000e-01  -9.007717041202254e-07 
9.100000e-01  -6.999711769851241e-07 
9.150000e-01  -4.977186466136225e-07 
9.200000e-01  -2.960172719434520e-07 
9.250000e-01  -9.215665501405976e-08 
9.300000e-01  9.709134249923930e-08 
9.350000e-01  1.511525612656578e-07 
9.400000e-01  1.661272802358818e-07 
9.450000e-01  1.724374176601896e-07 
9.500000e-01  1.759316204246449e-07 
9.550000e-01  1.782158649013587e-07 
9.600000e-01  1.798855509812542e-07 
9.650000e-01  1.812090070864251e-07 
9.700000e-01  1.823209602330231e-07 
9.750000e-01  1.832740016004709e-07 
9.800000e-01  1.839316947651981e-07 
9.850000e-01  1.840205953821570e-07 
9.900000e-01  1.840117762277448e-07 
9.950000e-01  1.840122008570338e-07 
1.000000e+00  1.840116780271157e-07 
