TITLE ="t=173.288398" 
VARIABLES = "x"                 "mu" 
ZONE I=201, ZONETYPE=Ordered, DATAPACKING=POINT
0.000000e+00  2.664684881625785e-05 
5.000000e-03  2.664115329974250e-05 
1.000000e-02  2.662265742246035e-05 
1.500000e-02  2.659833615552075e-05 
2.000000e-02  2.656969228759809e-05 
2.500000e-02  2.653498784683321e-05 
3.000000e-02  2.649028242551832e-05 
3.500000e-02  2.642753097435091e-05 
4.000000e-02  2.632810469212675e-05 
4.500000e-02  2.613844246001918e-05 
5.000000e-02  2.564270282811932e-05 
5.500000e-02  2.359735744742713e-05 
6.000000e-02  2.121699831074724e-05 
6.500000e-02  2.062865472693088e-05 
7.000000e-02  2.038683232587676e-05 
7.500000e-02  2.023863728619209e-05 
8.000000e-02  2.012012775198200e-05 
8.500000e-02  2.000355877920099e-05 
9.000000e-02  1.986478465662077e-05 
9.500000e-02  1.966086392117018e-05 
1.000000e-01  1.926386727388579e-05 
1.050000e-01  1.807607275426765e-05 
1.100000e-01  1.287217286748886e-05 
1.150000e-01  8.338853471392008e-06 
1.200000e-01  7.321378991979136e-06 
1.250000e-01  6.979311552822711e-06 
1.300000e-01  6.811023167593027e-06 
1.350000e-01  6.706801709166800e-06 
1.400000e-01  6.631202790175261e-06 
1.450000e-01  6.568545226346259e-06 
1.500000e-01  6.508400466623962e-06 
1.550000e-01  6.436300730455805e-06 
1.600000e-01  6.303630692905950e-06 
1.650000e-01  5.856612305290717e-06 
1.700000e-01  5.020237862001424e-06 
1.750000e-01  4.211918561472393e-06 
1.800000e-01  3.435205936298521e-06 
1.850000e-01  3.195429839381253e-06 
1.900000e-01  3.123936807279941e-06 
1.950000e-01  3.088421817298618e-06 
2.000000e-01  3.063070672048928e-06 
2.050000e-01  3.039961006945738e-06 
2.100000e-01  3.014438853200957e-06 
2.150000e-01  2.980656501382433e-06 
2.200000e-01  2.925480568994767e-06 
2.250000e-01  2.803891859637232e-06 
2.300000e-01  2.386482672033669e-06 
2.350000e-01  8.515091687020382e-07 
2.400000e-01  -8.604811509675535e-07 
2.450000e-01  -2.548892596527522e-06 
2.500000e-01  -4.231507504759226e-06 
2.550000e-01  -5.973591936477680e-06 
2.600000e-01  -6.762559656746935e-06 
2.650000e-01  -6.945703715799676e-06 
2.700000e-01  -7.006780403602781e-06 
2.750000e-01  -7.032629267253838e-06 
2.800000e-01  -7.043007798987329e-06 
2.850000e-01  -7.043276838107726e-06 
2.900000e-01  -7.033104818907921e-06 
2.950000e-01  -7.005820737740608e-06 
3.000000e-01  -6.935991283237303e-06 
3.050000e-01  -6.700062929223896e-06 
3.100000e-01  -5.656066963660246e-06 
3.150000e-01  -4.111952423277103e-06 
3.200000e-01  -2.624496734561971e-06 
3.250000e-01  -1.126322412903964e-06 
3.300000e-01  3.602428622693463e-07 
3.350000e-01  1.909310954264098e-06 
3.400000e-01  2.713820105801962e-06 
3.450000e-01  2.903803148522217e-06 
3.500000e-01  2.971810040437121e-06 
3.550000e-01  3.007139874722829e-06 
3.600000e-01  3.030323665644965e-06 
3.650000e-01  3.048440576420800e-06 
3.700000e-01  3.065127876543982e-06 
3.750000e-01  3.083837257069443e-06 
3.800000e-01  3.111861080665451e-06 
3.850000e-01  3.179565566352570e-06 
3.900000e-01  3.448615160712869e-06 
3.950000e-01  3.887473791586788e-06 
4.000000e-01  4.308698659212910e-06 
4.050000e-01  4.732798113273830e-06 
4.100000e-01  5.156451216921189e-06 
4.150000e-01  5.580174040752066e-06 
4.200000e-01  6.003886411894621e-06 
4.250000e-01  6.427599832840226e-06 
4.300000e-01  6.851321279215570e-06 
4.350000e-01  7.274995746385199e-06 
4.400000e-01  7.698978988263225e-06 
4.450000e-01  8.120985956152700e-06 
4.500000e-01  8.555270477635896e-06 
4.550000e-01  8.891617210933077e-06 
4.600000e-01  8.969915359941101e-06 
4.650000e-01  8.991078252222992e-06 
4.700000e-01  8.998123651644260e-06 
4.750000e-01  8.999517295125527e-06 
4.800000e-01  8.997272540757439e-06 
4.850000e-01  8.991203461273704e-06 
4.900000e-01  8.978994036778957e-06 
4.950000e-01  8.952863198376847e-06 
5.000000e-01  8.880693147148741e-06 
5.050000e-01  8.586388601936729e-06 
5.100000e-01  7.807523649415311e-06 
5.150000e-01  7.039785719124633e-06 
5.200000e-01  6.270281016106925e-06 
5.250000e-01  5.501045412312960e-06 
5.300000e-01  4.731761800605367e-06 
5.350000e-01  3.962480106587782e-06 
5.400000e-01  3.193192286377393e-06 
5.450000e-01  2.423903428216116e-06 
5.500000e-01  1.654590451580970e-06 
5.550000e-01  8.854019209938356e-07 
5.600000e-01  1.153896280998772e-07 
5.650000e-01  -6.493381101999739e-07 
5.700000e-01  -1.446464623374841e-06 
5.750000e-01  -1.916755058865434e-06 
5.800000e-01  -2.023131646167299e-06 
5.850000e-01  -2.056795419427348e-06 
5.900000e-01  -2.071176248737334e-06 
5.950000e-01  -2.077742927788148e-06 
6.000000e-01  -2.079715415252288e-06 
6.050000e-01  -2.077537477242019e-06 
6.100000e-01  -2.069317225664222e-06 
6.150000e-01  -2.047367784847337e-06 
6.200000e-01  -1.976069948656595e-06 
6.250000e-01  -1.657413593199757e-06 
6.300000e-01  -1.054945447689539e-06 
6.350000e-01  -4.769715287984720e-07 
6.400000e-01  1.050202858938705e-07 
6.450000e-01  6.863012065402687e-07 
6.500000e-01  1.268297521321627e-06 
6.550000e-01  1.846323820138098e-06 
6.600000e-01  2.448616066134656e-06 
6.650000e-01  2.812081680411877e-06 
6.700000e-01  2.895020254113987e-06 
6.750000e-01  2.921848344289475e-06 
6.800000e-01  2.934015127975036e-06 
6.850000e-01  2.940460511270765e-06 
6.900000e-01  2.943844187613081e-06 
6.950000e-01  2.944891173599026e-06 
7.000000e-01  2.943082547011166e-06 
7.050000e-01  2.935397838452884e-06 
7.100000e-01  2.907334660951866e-06 
7.150000e-01  2.777561713505111e-06 
7.200000e-01  2.525193058757894e-06 
7.250000e-01  2.282977398226675e-06 
7.300000e-01  2.039104534883254e-06 
7.350000e-01  1.795485554787091e-06 
7.400000e-01  1.551834772762218e-06 
7.450000e-01  1.308129638423841e-06 
7.500000e-01  1.064808430952676e-06 
7.550000e-01  8.190451380901996e-07 
7.600000e-01  5.898785961162726e-07 
7.650000e-01  5.211600931410344e-07 
7.700000e-01  4.985585481702473e-07 
7.750000e-01  4.857357630529707e-07 
7.800000e-01  4.753442667744797e-07 
7.850000e-01  4.648117919652366e-07 
7.900000e-01  4.521744762449886e-07 
7.950000e-01  4.343554135123151e-07 
8.000000e-01  4.037882941330551e-07 
8.050000e-01  3.335577699909894e-07 
8.100000e-01  8.449243835320640e-08 
8.150000e-01  -7.939621994135135e-07 
8.200000e-01  -1.745725385045283e-06 
8.250000e-01  -2.686881483534972e-06 
8.300000e-01  -3.629570962602156e-06 
8.350000e-01  -4.572827005475690e-06 
8.400000e-01  -5.510697244322671e-06 
8.450000e-01  -6.481994492836709e-06 
8.500000e-01  -6.921747426216559e-06 
8.550000e-01  -7.024454115799512e-06 
8.600000e-01  -7.059286235370245e-06 
8.650000e-01  -7.074624206602209e-06 
8.700000e-01  -7.081554512439626e-06 
8.750000e-01  -7.083220239000583e-06 
8.800000e-01  -7.079764576608460e-06 
8.850000e-01  -7.068285745996251e-06 
8.900000e-01  -7.037240739529558e-06 
8.950000e-01  -6.930195949269028e-06 
9.000000e-01  -6.453926703905479e-06 
9.050000e-01  -5.749777328258653e-06 
9.100000e-01  -5.071356734471456e-06 
9.150000e-01  -4.388534329967247e-06 
9.200000e-01  -3.707828284815863e-06 
9.250000e-01  -3.017774059314562e-06 
9.300000e-01  -2.392687518281141e-06 
9.350000e-01  -2.221159901489893e-06 
9.400000e-01  -2.172789475809222e-06 
9.450000e-01  -2.152085329024441e-06 
9.500000e-01  -2.140511743600795e-06 
9.550000e-01  -2.132896907716747e-06 
9.600000e-01  -2.127302654601741e-06 
9.650000e-01  -2.122848418566418e-06 
9.700000e-01  -2.119088803877639e-06 
9.750000e-01  -2.115851536911676e-06 
9.800000e-01  -2.113649185937912e-06 
9.850000e-01  -2.113404780957331e-06 
9.900000e-01  -2.113433508218645e-06 
9.950000e-01  -2.113432369771387e-06 
1.000000e+00  -2.113434075365068e-06 
