TITLE ="t=523.288398" 
VARIABLES = "x"                 "mu" 
ZONE I=201, ZONETYPE=Ordered, DATAPACKING=POINT
0.000000e+00  1.526222191306098e-05 
5.000000e-03  1.526088001289735e-05 
1.000000e-02  1.525766294152458e-05 
1.500000e-02  1.525366929965364e-05 
2.000000e-02  1.524897564225272e-05 
2.500000e-02  1.524325045900161e-05 
3.000000e-02  1.523579734949230e-05 
3.500000e-02  1.522518089020579e-05 
4.000000e-02  1.520799205684830e-05 
4.500000e-02  1.517402529322008e-05 
5.000000e-02  1.507958262425601e-05 
5.500000e-02  1.466571451841483e-05 
6.000000e-02  1.424169149397455e-05 
6.500000e-02  1.413885162508186e-05 
7.000000e-02  1.409613470985125e-05 
7.500000e-02  1.406894433764417e-05 
8.000000e-02  1.404611318547169e-05 
8.500000e-02  1.402256014644665e-05 
9.000000e-02  1.399340257180109e-05 
9.500000e-02  1.394944083652069e-05 
1.000000e-01  1.386319294900626e-05 
1.050000e-01  1.360820030007733e-05 
1.100000e-01  1.247944924286331e-05 
1.150000e-01  1.133219979172211e-05 
1.200000e-01  1.106436969625597e-05 
1.250000e-01  1.096558268472188e-05 
1.300000e-01  1.090751197085528e-05 
1.350000e-01  1.086133679316753e-05 
1.400000e-01  1.081571446399950e-05 
1.450000e-01  1.076149821626827e-05 
1.500000e-01  1.068354515741022e-05 
1.550000e-01  1.054065080917065e-05 
1.600000e-01  1.016021122584782e-05 
1.650000e-01  8.589999109871084e-06 
1.700000e-01  5.265197347966159e-06 
1.750000e-01  2.019460913840031e-06 
1.800000e-01  -9.467232104043492e-07 
1.850000e-01  -1.762899286016778e-06 
1.900000e-01  -1.992059219342890e-06 
1.950000e-01  -2.089463201923646e-06 
2.000000e-01  -2.143340256407341e-06 
2.050000e-01  -2.178177352063204e-06 
2.100000e-01  -2.202979630195320e-06 
2.150000e-01  -2.221483922388480e-06 
2.200000e-01  -2.234605147502611e-06 
2.250000e-01  -2.238756387051102e-06 
2.300000e-01  -2.208501748422262e-06 
2.350000e-01  -2.072054470622684e-06 
2.400000e-01  -1.926143046530424e-06 
2.450000e-01  -1.781422907762168e-06 
2.500000e-01  -1.637496134688696e-06 
2.550000e-01  -1.487466112287553e-06 
2.600000e-01  -1.404973958379960e-06 
2.650000e-01  -1.383991799885607e-06 
2.700000e-01  -1.375079124108521e-06 
2.750000e-01  -1.369092294812896e-06 
2.800000e-01  -1.363760274777782e-06 
2.850000e-01  -1.357980027752188e-06 
2.900000e-01  -1.350569726338614e-06 
2.950000e-01  -1.339191727331775e-06 
3.000000e-01  -1.316907530397131e-06 
3.050000e-01  -1.252572708230053e-06 
3.100000e-01  -9.766484972907197e-07 
3.150000e-01  -5.021696827872514e-07 
3.200000e-01  -4.715065503629714e-08 
3.250000e-01  4.115207809725780e-07 
3.300000e-01  8.665388873578918e-07 
3.350000e-01  1.340996208332959e-06 
3.400000e-01  1.597271963552763e-06 
3.450000e-01  1.658859698866973e-06 
3.500000e-01  1.681944457512105e-06 
3.550000e-01  1.695044944965578e-06 
3.600000e-01  1.704817491284049e-06 
3.650000e-01  1.713817781151744e-06 
3.700000e-01  1.723876928472236e-06 
3.750000e-01  1.737762224617600e-06 
3.800000e-01  1.763015181510362e-06 
3.850000e-01  1.832946769715641e-06 
3.900000e-01  2.128080654048296e-06 
3.950000e-01  2.630178055742327e-06 
4.000000e-01  3.111814819963263e-06 
4.050000e-01  3.596794117643006e-06 
4.100000e-01  4.081257684848707e-06 
4.150000e-01  4.565804540732014e-06 
4.200000e-01  5.050341220796986e-06 
4.250000e-01  5.534880415685150e-06 
4.300000e-01  6.019431641328326e-06 
4.350000e-01  6.503919086070577e-06 
4.400000e-01  6.988829324156901e-06 
4.450000e-01  7.471031485703208e-06 
4.500000e-01  7.969962446050146e-06 
4.550000e-01  8.327460932940538e-06 
4.600000e-01  8.409471063544737e-06 
4.650000e-01  8.433569767318026e-06 
4.700000e-01  8.443152579897537e-06 
4.750000e-01  8.447060835745464e-06 
4.800000e-01  8.447653477877312e-06 
4.850000e-01  8.445212335448006e-06 
4.900000e-01  8.438343412848139e-06 
4.950000e-01  8.421699583060360e-06 
5.000000e-01  8.372079047577852e-06 
5.050000e-01  8.160522009857454e-06 
5.100000e-01  7.657182167034898e-06 
5.150000e-01  7.168131296417417e-06 
5.200000e-01  6.676780772605133e-06 
5.250000e-01  6.185784148719045e-06 
5.300000e-01  5.694728796230928e-06 
5.350000e-01  5.203679474293621e-06 
5.400000e-01  4.712625942935498e-06 
5.450000e-01  4.221572294028620e-06 
5.500000e-01  3.730503604869542e-06 
5.550000e-01  3.239515354049929e-06 
5.600000e-01  2.747998444613268e-06 
5.650000e-01  2.259877053840333e-06 
5.700000e-01  1.750941564835652e-06 
5.750000e-01  1.474982970657824e-06 
5.800000e-01  1.411011993157366e-06 
5.850000e-01  1.389141381632773e-06 
5.900000e-01  1.378535609847891e-06 
5.950000e-01  1.372289455525344e-06 
6.000000e-01  1.368203510892862e-06 
6.050000e-01  1.365457641781208e-06 
6.100000e-01  1.363877359010901e-06 
6.150000e-01  1.364100492295375e-06 
6.200000e-01  1.370030044689474e-06 
6.250000e-01  1.403798464593071e-06 
6.300000e-01  1.463840179811288e-06 
6.350000e-01  1.521426625548767e-06 
6.400000e-01  1.579417195340524e-06 
6.450000e-01  1.637336979054945e-06 
6.500000e-01  1.695329298413464e-06 
6.550000e-01  1.752922252244124e-06 
6.600000e-01  1.812959069529628e-06 
6.650000e-01  1.848604135937032e-06 
6.700000e-01  1.857425392053678e-06 
6.750000e-01  1.860957972276484e-06 
6.800000e-01  1.863209710463503e-06 
6.850000e-01  1.865131955187575e-06 
6.900000e-01  1.867147676467633e-06 
6.950000e-01  1.869664212134763e-06 
7.000000e-01  1.873440214480379e-06 
7.050000e-01  1.880660356366992e-06 
7.100000e-01  1.900885575212639e-06 
7.150000e-01  1.986705542304579e-06 
7.200000e-01  2.146710820397441e-06 
7.250000e-01  2.300194370902139e-06 
7.300000e-01  2.454742869330132e-06 
7.350000e-01  2.609127744384802e-06 
7.400000e-01  2.763535496418971e-06 
7.450000e-01  2.917966163514332e-06 
7.500000e-01  3.072234471522416e-06 
7.550000e-01  3.227548753519664e-06 
7.600000e-01  3.375800132308038e-06 
7.650000e-01  3.418523350363419e-06 
7.700000e-01  3.427105552779468e-06 
7.750000e-01  3.427939310223109e-06 
7.800000e-01  3.425729864922730e-06 
7.850000e-01  3.421299396466323e-06 
7.900000e-01  3.414160470200339e-06 
7.950000e-01  3.402407746969628e-06 
8.000000e-01  3.380525130217887e-06 
8.050000e-01  3.328572463095903e-06 
8.100000e-01  3.144058924115541e-06 
8.150000e-01  2.456221881287906e-06 
8.200000e-01  1.685782822138134e-06 
8.250000e-01  9.269507795961150e-07 
8.300000e-01  1.664102325775740e-07 
8.350000e-01  -5.946387400046245e-07 
8.400000e-01  -1.350532580178052e-06 
8.450000e-01  -2.138231921777612e-06 
8.500000e-01  -2.549662368790758e-06 
8.550000e-01  -2.644456470089562e-06 
8.600000e-01  -2.676252821478587e-06 
8.650000e-01  -2.690850039471089e-06 
8.700000e-01  -2.698480588329761e-06 
8.750000e-01  -2.702213000132735e-06 
8.800000e-01  -2.702761448894315e-06 
8.850000e-01  -2.699093013960161e-06 
8.900000e-01  -2.686150331827189e-06 
8.950000e-01  -2.639245262093071e-06 
9.000000e-01  -2.423515181841371e-06 
9.050000e-01  -2.061693588299013e-06 
9.100000e-01  -1.714507577981873e-06 
9.150000e-01  -1.364839160954589e-06 
9.200000e-01  -1.016147337756495e-06 
9.250000e-01  -6.635549004921180e-07 
9.300000e-01  -3.374788846133189e-07 
9.350000e-01  -2.449646379359742e-07 
9.400000e-01  -2.192634409293973e-07 
9.450000e-01  -2.084052352629264e-07 
9.500000e-01  -2.023831946819257e-07 
9.550000e-01  -1.984422675885142e-07 
9.600000e-01  -1.955592305974701e-07 
9.650000e-01  -1.932723379628830e-07 
9.700000e-01  -1.913494761552563e-07 
9.750000e-01  -1.897001953701143e-07 
9.800000e-01  -1.885647101104405e-07 
9.850000e-01  -1.884159411313675e-07 
9.900000e-01  -1.884311419227090e-07 
9.950000e-01  -1.884304484063664e-07 
1.000000e+00  -1.884313533298278e-07 
