TITLE ="t=123.288398" 
VARIABLES = "x"                 "mu" 
ZONE I=201, ZONETYPE=Ordered, DATAPACKING=POINT
0.000000e+00  2.453048346688910e-05 
5.000000e-03  2.452830237234206e-05 
1.000000e-02  2.452032794807127e-05 
1.500000e-02  2.450959601967350e-05 
2.000000e-02  2.449691292113982e-05 
2.500000e-02  2.448153308239365e-05 
3.000000e-02  2.446172142296265e-05 
3.500000e-02  2.443393634454617e-05 
4.000000e-02  2.439001451118903e-05 
4.500000e-02  2.430668639601131e-05 
5.000000e-02  2.409156984174524e-05 
5.500000e-02  2.322109314905179e-05 
6.000000e-02  2.219849050601345e-05 
6.500000e-02  2.190040753107498e-05 
7.000000e-02  2.174359062285723e-05 
7.500000e-02  2.161937669807994e-05 
8.000000e-02  2.149476803151347e-05 
8.500000e-02  2.134735427831270e-05 
9.000000e-02  2.114479992835063e-05 
9.500000e-02  2.081319300427519e-05 
1.000000e-01  2.011353039887787e-05 
1.050000e-01  1.789744701908104e-05 
1.100000e-01  8.198036448802422e-06 
1.150000e-01  1.229663779090043e-06 
1.200000e-01  -3.479749799036923e-07 
1.250000e-01  -8.920683079906204e-07 
1.300000e-01  -1.158677089884162e-06 
1.350000e-01  -1.318081620325583e-06 
1.400000e-01  -1.425096301650849e-06 
1.450000e-01  -1.501022682952063e-06 
1.500000e-01  -1.552597687226839e-06 
1.550000e-01  -1.571424784535291e-06 
1.600000e-01  -1.493783585574081e-06 
1.650000e-01  -9.504769043135432e-07 
1.700000e-01  2.018771578199362e-08 
1.750000e-01  9.588691004468914e-07 
1.800000e-01  1.852094781718795e-06 
1.850000e-01  2.111326059126910e-06 
1.900000e-01  2.175364656068448e-06 
1.950000e-01  2.195852699896765e-06 
2.000000e-01  2.201033469681481e-06 
2.050000e-01  2.197541161309518e-06 
2.100000e-01  2.185988762335324e-06 
2.150000e-01  2.162722134771102e-06 
2.200000e-01  2.115218366890756e-06 
2.250000e-01  1.996553816589946e-06 
2.300000e-01  1.563090793809093e-06 
2.350000e-01  -2.703398315173382e-08 
2.400000e-01  -1.782452834530914e-06 
2.450000e-01  -3.515660627470249e-06 
2.500000e-01  -5.243739590789669e-06 
2.550000e-01  -7.025931727366086e-06 
2.600000e-01  -7.793751568644411e-06 
2.650000e-01  -7.972875447658372e-06 
2.700000e-01  -8.032544922152683e-06 
2.750000e-01  -8.057066979143282e-06 
2.800000e-01  -8.065748157240163e-06 
2.850000e-01  -8.063620052287376e-06 
2.900000e-01  -8.049724966569328e-06 
2.950000e-01  -8.015774762831578e-06 
3.000000e-01  -7.930793869347484e-06 
3.050000e-01  -7.643442264175961e-06 
3.100000e-01  -6.385104993280503e-06 
3.150000e-01  -4.595490659929019e-06 
3.200000e-01  -2.868077262738481e-06 
3.250000e-01  -1.128851568136406e-06 
3.300000e-01  5.971246225625625e-07 
3.350000e-01  2.394821152101642e-06 
3.400000e-01  3.311515583022850e-06 
3.450000e-01  3.528152294343574e-06 
3.500000e-01  3.605690472956898e-06 
3.550000e-01  3.645698639093783e-06 
3.600000e-01  3.671592989160065e-06 
3.650000e-01  3.691384807431746e-06 
3.700000e-01  3.709026088952343e-06 
3.750000e-01  3.727928944537029e-06 
3.800000e-01  3.754742722380224e-06 
3.850000e-01  3.816541783835414e-06 
3.900000e-01  4.056311623633591e-06 
3.950000e-01  4.439800484508794e-06 
4.000000e-01  4.808028303796509e-06 
4.050000e-01  5.178740850873485e-06 
4.100000e-01  5.549066383029735e-06 
4.150000e-01  5.919451336956874e-06 
4.200000e-01  6.289826477421477e-06 
4.250000e-01  6.660201882828458e-06 
4.300000e-01  7.030583539406105e-06 
4.350000e-01  7.400924962844868e-06 
4.400000e-01  7.771527667401656e-06 
4.450000e-01  8.140456010089684e-06 
4.500000e-01  8.519792820211856e-06 
4.550000e-01  8.816680075645895e-06 
4.600000e-01  8.885715734856811e-06 
4.650000e-01  8.903770310979470e-06 
4.700000e-01  8.909201905163509e-06 
4.750000e-01  8.909484304531016e-06 
4.800000e-01  8.906298155357446e-06 
4.850000e-01  8.899273048459344e-06 
4.900000e-01  8.885892775920353e-06 
4.950000e-01  8.857962506956866e-06 
5.000000e-01  8.781982704473810e-06 
5.050000e-01  8.474799134741544e-06 
5.100000e-01  7.649330829322815e-06 
5.150000e-01  6.833434442002222e-06 
5.200000e-01  6.016020879254723e-06 
5.250000e-01  5.198836982683233e-06 
5.300000e-01  4.381610620454750e-06 
5.350000e-01  3.564384712550804e-06 
5.400000e-01  2.747152297283175e-06 
5.450000e-01  1.929918499922081e-06 
5.500000e-01  1.112659046097000e-06 
5.550000e-01  2.955304238024804e-07 
5.600000e-01  -5.224661673345690e-07 
5.650000e-01  -1.334896814435286e-06 
5.700000e-01  -2.181462747093275e-06 
5.750000e-01  -2.690660429155779e-06 
5.800000e-01  -2.805384207674802e-06 
5.850000e-01  -2.841085785686630e-06 
5.900000e-01  -2.855887463012608e-06 
5.950000e-01  -2.862156637077801e-06 
6.000000e-01  -2.863275568594382e-06 
6.050000e-01  -2.859539316636152e-06 
6.100000e-01  -2.848483879151134e-06 
6.150000e-01  -2.820572302891469e-06 
6.200000e-01  -2.732139434678561e-06 
6.250000e-01  -2.340287465056842e-06 
6.300000e-01  -1.584225971138684e-06 
6.350000e-01  -8.586258103894993e-07 
6.400000e-01  -1.280304247878675e-07 
6.450000e-01  6.016819141741761e-07 
6.500000e-01  1.332286694055315e-06 
6.550000e-01  2.057944170474392e-06 
6.600000e-01  2.813857301938189e-06 
6.650000e-01  3.275839404285534e-06 
6.700000e-01  3.381163823970063e-06 
6.750000e-01  3.415025455106949e-06 
6.800000e-01  3.430271502014339e-06 
6.850000e-01  3.438253583245324e-06 
6.900000e-01  3.442326168309710e-06 
6.950000e-01  3.443373442426641e-06 
7.000000e-01  3.440661680472453e-06 
7.050000e-01  3.430148122133439e-06 
7.100000e-01  3.392589260435704e-06 
7.150000e-01  3.220048314819522e-06 
7.200000e-01  2.879990842043251e-06 
7.250000e-01  2.553503588809504e-06 
7.300000e-01  2.224801947121905e-06 
7.350000e-01  1.896438876683493e-06 
7.400000e-01  1.568033408661797e-06 
7.450000e-01  1.239549986163863e-06 
7.500000e-01  9.116082532793768e-07 
7.550000e-01  5.802178737872837e-07 
7.600000e-01  2.723803177703045e-07 
7.650000e-01  1.815575179128678e-07 
7.700000e-01  1.526949112913073e-07 
7.750000e-01  1.371301686324524e-07 
7.800000e-01  1.251272294541624e-07 
7.850000e-01  1.134370778249127e-07 
7.900000e-01  9.981359046241992e-08 
7.950000e-01  8.098414020698309e-08 
8.000000e-01  4.908656491951806e-08 
8.050000e-01  -2.375262354163635e-08 
8.100000e-01  -2.817071129467875e-07 
8.150000e-01  -1.185112926734260e-06 
8.200000e-01  -2.160463666854945e-06 
8.250000e-01  -3.125370146295404e-06 
8.300000e-01  -4.091787023324752e-06 
8.350000e-01  -5.058749053822133e-06 
8.400000e-01  -6.020489087719288e-06 
8.450000e-01  -7.014707504270957e-06 
8.500000e-01  -7.454089069932077e-06 
8.550000e-01  -7.557166973430978e-06 
8.600000e-01  -7.592309800106581e-06 
8.650000e-01  -7.607790120251861e-06 
8.700000e-01  -7.614733205473518e-06 
8.750000e-01  -7.616285589915644e-06 
8.800000e-01  -7.612538375288793e-06 
8.850000e-01  -7.600409062287223e-06 
8.900000e-01  -7.567680242349597e-06 
8.950000e-01  -7.454392224310457e-06 
9.000000e-01  -6.952334100906982e-06 
9.050000e-01  -6.224307017373387e-06 
9.100000e-01  -5.522210881022039e-06 
9.150000e-01  -4.815668824665836e-06 
9.200000e-01  -4.111354346945149e-06 
9.250000e-01  -3.397025840070430e-06 
9.300000e-01  -2.752576939511999e-06 
9.350000e-01  -2.576775036326774e-06 
9.400000e-01  -2.527061822121766e-06 
9.450000e-01  -2.505732142138201e-06 
9.500000e-01  -2.493791658286319e-06 
9.550000e-01  -2.485927656233534e-06 
9.600000e-01  -2.480145877437460e-06 
9.650000e-01  -2.475539136827077e-06 
9.700000e-01  -2.471648031589610e-06 
9.750000e-01  -2.468295061742022e-06 
9.800000e-01  -2.466018934404593e-06 
9.850000e-01  -2.465774283344387e-06 
9.900000e-01  -2.465803767513974e-06 
9.950000e-01  -2.465802616076538e-06 
1.000000e+00  -2.465804362726550e-06 
