TITLE ="t=273.288398" 
VARIABLES = "x"                 "mu" 
ZONE I=201, ZONETYPE=Ordered, DATAPACKING=POINT
0.000000e+00  2.223804432240668e-05 
5.000000e-03  2.223432622271467e-05 
1.000000e-02  2.222417412417728e-05 
1.500000e-02  2.221123929535943e-05 
2.000000e-02  2.219601313531694e-05 
2.500000e-02  2.217749256438799e-05 
3.000000e-02  2.215349706304153e-05 
3.500000e-02  2.211955104164322e-05 
4.000000e-02  2.206515157714633e-05 
4.500000e-02  2.195945473791604e-05 
5.000000e-02  2.167408024419161e-05 
5.500000e-02  2.045506593234835e-05 
6.000000e-02  1.915208270724893e-05 
6.500000e-02  1.883612544941435e-05 
7.000000e-02  1.870770685723559e-05 
7.500000e-02  1.862952209872862e-05 
8.000000e-02  1.856726315196520e-05 
8.500000e-02  1.850622656822771e-05 
9.000000e-02  1.843380303127009e-05 
9.500000e-02  1.832782791955082e-05 
1.000000e-01  1.812284753972648e-05 
1.050000e-01  1.751508407582393e-05 
1.100000e-01  1.485224722633894e-05 
1.150000e-01  1.224034350423763e-05 
1.200000e-01  1.164726115456123e-05 
1.250000e-01  1.144831813024662e-05 
1.300000e-01  1.134720035331764e-05 
1.350000e-01  1.128001633467602e-05 
1.400000e-01  1.122548692542544e-05 
1.450000e-01  1.117228536593645e-05 
1.500000e-01  1.110852572791887e-05 
1.550000e-01  1.100808677850958e-05 
1.600000e-01  1.076787474465463e-05 
1.650000e-01  9.825727375836693e-06 
1.700000e-01  7.799948877893538e-06 
1.750000e-01  5.832295393955119e-06 
1.800000e-01  3.942801084815047e-06 
1.850000e-01  3.367204099195937e-06 
1.900000e-01  3.206460305118467e-06 
1.950000e-01  3.135582896689298e-06 
2.000000e-01  3.092327220667342e-06 
2.050000e-01  3.059222148731048e-06 
2.100000e-01  3.028549426145886e-06 
2.150000e-01  2.994006389899278e-06 
2.200000e-01  2.944706316612686e-06 
2.250000e-01  2.846168771221482e-06 
2.300000e-01  2.525421269639548e-06 
2.350000e-01  1.359957042638389e-06 
2.400000e-01  5.966996121876460e-08 
2.450000e-01  -1.222772315425019e-06 
2.500000e-01  -2.499846640872481e-06 
2.550000e-01  -3.827910183836401e-06 
2.600000e-01  -4.481247320504114e-06 
2.650000e-01  -4.631300166691815e-06 
2.700000e-01  -4.680790382342579e-06 
2.750000e-01  -4.702061913397522e-06 
2.800000e-01  -4.711307850539911e-06 
2.850000e-01  -4.713038884460837e-06 
2.900000e-01  -4.707436358430836e-06 
2.950000e-01  -4.690363801960846e-06 
3.000000e-01  -4.645664121436806e-06 
3.050000e-01  -4.495789720450117e-06 
3.100000e-01  -3.825439027999688e-06 
3.150000e-01  -2.762386460647402e-06 
3.200000e-01  -1.741122097121526e-06 
3.250000e-01  -7.119895052161830e-07 
3.300000e-01  3.090195434933314e-07 
3.350000e-01  1.373451532119188e-06 
3.400000e-01  1.939887788486924e-06 
3.450000e-01  2.073957763524827e-06 
3.500000e-01  2.122325258099309e-06 
3.550000e-01  2.148011669388428e-06 
3.600000e-01  2.165502694156281e-06 
3.650000e-01  2.179923248576922e-06 
3.700000e-01  2.194189210141523e-06 
3.750000e-01  2.211636066500507e-06 
3.800000e-01  2.240244550640108e-06 
3.850000e-01  2.314268512467822e-06 
3.900000e-01  2.617976781368765e-06 
3.950000e-01  3.126589456784556e-06 
4.000000e-01  3.614560539798547e-06 
4.050000e-01  4.105901224259163e-06 
4.100000e-01  4.596720789920261e-06 
4.150000e-01  5.087623559858091e-06 
4.200000e-01  5.578515439215779e-06 
4.250000e-01  6.069409629494294e-06 
4.300000e-01  6.560314614066552e-06 
4.350000e-01  7.051162530798915e-06 
4.400000e-01  7.542390608658687e-06 
4.450000e-01  8.031188319632046e-06 
4.500000e-01  8.535061570283050e-06 
4.550000e-01  8.916761226664195e-06 
4.600000e-01  9.005373843595033e-06 
4.650000e-01  9.030269677666501e-06 
4.700000e-01  9.039401493420612e-06 
4.750000e-01  9.042336110705695e-06 
4.800000e-01  9.041489141608911e-06 
4.850000e-01  9.036934655785650e-06 
4.900000e-01  9.026691980718917e-06 
4.950000e-01  9.003738083053085e-06 
5.000000e-01  8.938569407492924e-06 
5.050000e-01  8.668603869952493e-06 
5.100000e-01  7.976146464698317e-06 
5.150000e-01  7.296991153141868e-06 
5.200000e-01  6.615714899295285e-06 
5.250000e-01  5.934763635574606e-06 
5.300000e-01  5.253756563087745e-06 
5.350000e-01  4.572753523244681e-06 
5.400000e-01  3.891744952658223e-06 
5.450000e-01  3.210735767883674e-06 
5.500000e-01  2.529705308661078e-06 
5.550000e-01  1.848786212292599e-06 
5.600000e-01  1.167131984162016e-06 
5.650000e-01  4.901960094687844e-07 
5.700000e-01  -2.156581497620928e-07 
5.750000e-01  -6.189731400397593e-07 
5.800000e-01  -7.109467730873473e-07 
5.850000e-01  -7.409144624586036e-07 
5.900000e-01  -7.543766171949210e-07 
5.950000e-01  -7.612523584027184e-07 
6.000000e-01  -7.644609079367672e-07 
6.050000e-01  -7.646669089706276e-07 
6.100000e-01  -7.608936647764468e-07 
6.150000e-01  -7.484686958481172e-07 
6.200000e-01  -7.051071829666354e-07 
6.250000e-01  -5.070114140196864e-07 
6.300000e-01  -1.442116195446663e-07 
6.350000e-01  2.037200068561038e-07 
6.400000e-01  5.540913918800802e-07 
6.450000e-01  9.040306161087788e-07 
6.500000e-01  1.254403400198787e-06 
6.550000e-01  1.602366613997111e-06 
6.600000e-01  1.965049122403752e-06 
6.650000e-01  2.180260430468447e-06 
6.700000e-01  2.229572530596098e-06 
6.750000e-01  2.245780551291074e-06 
6.800000e-01  2.253324167010044e-06 
6.850000e-01  2.257519592057113e-06 
6.900000e-01  2.259989358256089e-06 
6.950000e-01  2.261250895021360e-06 
7.000000e-01  2.261199362653926e-06 
7.050000e-01  2.258652101022750e-06 
7.100000e-01  2.247648325367449e-06 
7.150000e-01  2.194585969269436e-06 
7.200000e-01  2.092781106949056e-06 
7.250000e-01  1.995105990380051e-06 
7.300000e-01  1.896756836857105e-06 
7.350000e-01  1.798511537197698e-06 
7.400000e-01  1.700253471951050e-06 
7.450000e-01  1.601977245785373e-06 
7.500000e-01  1.503838245078790e-06 
7.550000e-01  1.404831236379614e-06 
7.600000e-01  1.311618990192467e-06 
7.650000e-01  1.281710764795024e-06 
7.700000e-01  1.270083258027670e-06 
7.750000e-01  1.262088494664122e-06 
7.800000e-01  1.254573456854469e-06 
7.850000e-01  1.246156050387558e-06 
7.900000e-01  1.235382794761917e-06 
7.950000e-01  1.219561380088997e-06 
8.000000e-01  1.191763510620223e-06 
8.050000e-01  1.127206568787901e-06 
8.100000e-01  8.978982611701867e-07 
8.150000e-01  7.677906199800212e-08 
8.200000e-01  -8.201094602470897e-07 
8.250000e-01  -1.706115612749651e-06 
8.300000e-01  -2.593698847838895e-06 
8.350000e-01  -3.481859749439179e-06 
8.400000e-01  -4.364522123914393e-06 
8.450000e-01  -5.281205892613034e-06 
8.500000e-01  -5.715853000983801e-06 
8.550000e-01  -5.816664218944492e-06 
8.600000e-01  -5.850591198186572e-06 
8.650000e-01  -5.865599697517861e-06 
8.700000e-01  -5.872572972300926e-06 
8.750000e-01  -5.874626783561119e-06 
8.800000e-01  -5.872037903936357e-06 
8.850000e-01  -5.862368966600935e-06 
8.900000e-01  -5.835752963664649e-06 
8.950000e-01  -5.744243663301274e-06 
9.000000e-01  -5.334115636355249e-06 
9.050000e-01  -4.704043183031952e-06 
9.100000e-01  -4.097985033579542e-06 
9.150000e-01  -3.487832733251755e-06 
9.200000e-01  -2.879509190365165e-06 
9.250000e-01  -2.263377416388556e-06 
9.300000e-01  -1.701098672786964e-06 
9.350000e-01  -1.545055826925479e-06 
9.400000e-01  -1.501279760018881e-06 
9.450000e-01  -1.482626154561445e-06 
9.500000e-01  -1.472227121782137e-06 
9.550000e-01  -1.465397783918555e-06 
9.600000e-01  -1.460387896301028e-06 
9.650000e-01  -1.456404135125920e-06 
9.700000e-01  -1.453046107932024e-06 
9.750000e-01  -1.450158595658643e-06 
9.800000e-01  -1.448186132655489e-06 
9.850000e-01  -1.447953978945069e-06 
9.900000e-01  -1.447979998570882e-06 
9.950000e-01  -1.447978928662047e-06 
1.000000e+00  -1.447980477886706e-06 
