TITLE ="t=373.288398" 
VARIABLES = "x"                 "mu" 
ZONE I=201, ZONETYPE=Ordered, DATAPACKING=POINT
0.000000e+00  1.860863295676729e-05 
5.000000e-03  1.860646847100661e-05 
1.000000e-02  1.860098742682910e-05 
1.500000e-02  1.859410669485121e-05 
2.000000e-02  1.858601307777179e-05 
2.500000e-02  1.857615183114746e-05 
3.000000e-02  1.856334044509822e-05 
3.500000e-02  1.854514588171370e-05 
4.000000e-02  1.851582005530645e-05 
4.500000e-02  1.845829999169297e-05 
5.000000e-02  1.830042093726459e-05 
5.500000e-02  1.761576256753839e-05 
6.000000e-02  1.690708095594676e-05 
6.500000e-02  1.673560590736658e-05 
7.000000e-02  1.666540713611880e-05 
7.500000e-02  1.662194189187896e-05 
8.000000e-02  1.658659025537179e-05 
8.500000e-02  1.655119172319877e-05 
9.000000e-02  1.650841792366412e-05 
9.500000e-02  1.644499577141316e-05 
1.000000e-01  1.632152254601486e-05 
1.050000e-01  1.595574925955089e-05 
1.100000e-01  1.434716674661709e-05 
1.150000e-01  1.270639424269056e-05 
1.200000e-01  1.232906342933150e-05 
1.250000e-01  1.219868365274021e-05 
1.300000e-01  1.212852568093120e-05 
1.350000e-01  1.207797126011457e-05 
1.400000e-01  1.203265887454566e-05 
1.450000e-01  1.198335598281622e-05 
1.500000e-01  1.191754393847341e-05 
1.550000e-01  1.180382756617814e-05 
1.600000e-01  1.151452915531152e-05 
1.650000e-01  1.034874070434479e-05 
1.700000e-01  7.776392769159122e-06 
1.750000e-01  5.270516065612249e-06 
1.800000e-01  2.890504627927763e-06 
1.850000e-01  2.185342533561549e-06 
1.900000e-01  1.989830779325958e-06 
1.950000e-01  1.905824352022200e-06 
2.000000e-01  1.857031803534900e-06 
2.050000e-01  1.822332380990500e-06 
2.100000e-01  1.793173176294634e-06 
2.150000e-01  1.764022614308093e-06 
2.200000e-01  1.727481193988724e-06 
2.250000e-01  1.662412681061419e-06 
2.300000e-01  1.464829563560443e-06 
2.350000e-01  7.754536185518236e-07 
2.400000e-01  1.765361695097393e-08 
2.450000e-01  -7.310659949271729e-07 
2.500000e-01  -1.476232898078315e-06 
2.550000e-01  -2.252464212592246e-06 
2.600000e-01  -2.655951059325016e-06 
2.650000e-01  -2.747597090313085e-06 
2.700000e-01  -2.777092006770568e-06 
2.750000e-01  -2.789385051511362e-06 
2.800000e-01  -2.794362629828690e-06 
2.850000e-01  -2.794708750468929e-06 
2.900000e-01  -2.790432912598344e-06 
2.950000e-01  -2.778824076014140e-06 
3.000000e-01  -2.749579767675435e-06 
3.050000e-01  -2.654014553318274e-06 
3.100000e-01  -2.227556289591758e-06 
3.150000e-01  -1.516786506593121e-06 
3.200000e-01  -8.348148078936874e-07 
3.250000e-01  -1.474315820793323e-07 
3.300000e-01  5.344884627477848e-07 
3.350000e-01  1.245518180831171e-06 
3.400000e-01  1.628208291442037e-06 
3.450000e-01  1.719365716444053e-06 
3.500000e-01  1.752800474838668e-06 
3.550000e-01  1.771119017371429e-06 
3.600000e-01  1.784171095162036e-06 
3.650000e-01  1.795575189262497e-06 
3.700000e-01  1.807646032620467e-06 
3.750000e-01  1.823489113670502e-06 
3.800000e-01  1.851158764756372e-06 
3.850000e-01  1.925846422829531e-06 
3.900000e-01  2.237844660171910e-06 
3.950000e-01  2.766762182518269e-06 
4.000000e-01  3.274141067661338e-06 
4.050000e-01  3.785038015854633e-06 
4.100000e-01  4.295391915564034e-06 
4.150000e-01  4.805833390732573e-06 
4.200000e-01  5.316264126991846e-06 
4.250000e-01  5.826697694711289e-06 
4.300000e-01  6.337143397754927e-06 
4.350000e-01  6.847526644313337e-06 
4.400000e-01  7.358326953199293e-06 
4.450000e-01  7.866460359859014e-06 
4.500000e-01  8.391108587906780e-06 
4.550000e-01  8.779635034791262e-06 
4.600000e-01  8.869390476091264e-06 
4.650000e-01  8.895183749016123e-06 
4.700000e-01  8.905079942726540e-06 
4.750000e-01  8.908761574397230e-06 
4.800000e-01  8.908748155863444e-06 
4.850000e-01  8.905250204405419e-06 
4.900000e-01  8.896551736504995e-06 
4.950000e-01  8.876322627678687e-06 
5.000000e-01  8.817575956703107e-06 
5.050000e-01  8.570985668153125e-06 
5.100000e-01  7.957898033682868e-06 
5.150000e-01  7.359173578447250e-06 
5.200000e-01  6.758149570073477e-06 
5.250000e-01  6.157478837069364e-06 
5.300000e-01  5.556748580842080e-06 
5.350000e-01  4.956023617165218e-06 
5.400000e-01  4.355293641470606e-06 
5.450000e-01  3.754563297078662e-06 
5.500000e-01  3.153814294627004e-06 
5.550000e-01  2.553163831057999e-06 
5.600000e-01  1.951864049531912e-06 
5.650000e-01  1.354733008271092e-06 
5.700000e-01  7.320523782257658e-07 
5.750000e-01  3.849946511868747e-07 
5.800000e-01  3.052559089909183e-07 
5.850000e-01  2.786644498846807e-07 
5.900000e-01  2.662553645424079e-07 
5.950000e-01  2.594258655343719e-07 
6.000000e-01  2.555455282213921e-07 
6.050000e-01  2.538278845285805e-07 
6.100000e-01  2.546200768039351e-07 
6.150000e-01  2.604536997055506e-07 
6.200000e-01  2.839596872047018e-07 
6.250000e-01  3.954281603230967e-07 
6.300000e-01  5.952386574522521e-07 
6.350000e-01  7.868530084071105e-07 
6.400000e-01  9.798128791039891e-07 
6.450000e-01  1.172534543038819e-06 
6.500000e-01  1.365495738857244e-06 
6.550000e-01  1.557125866393845e-06 
6.600000e-01  1.756886647448316e-06 
6.650000e-01  1.874569404303667e-06 
6.700000e-01  1.901822216694176e-06 
6.750000e-01  1.911069642566358e-06 
6.800000e-01  1.915638502430096e-06 
6.850000e-01  1.918467223784322e-06 
6.900000e-01  1.920510338687918e-06 
6.950000e-01  1.922188311785332e-06 
7.000000e-01  1.923773230243243e-06 
7.050000e-01  1.925625810252548e-06 
7.100000e-01  1.928939949686014e-06 
7.150000e-01  1.939909568714858e-06 
7.200000e-01  1.959533432606581e-06 
7.250000e-01  1.978356017785263e-06 
7.300000e-01  1.997309759339536e-06 
7.350000e-01  2.016243876507658e-06 
7.400000e-01  2.035181293785464e-06 
7.450000e-01  2.054124063189662e-06 
7.500000e-01  2.073038212562377e-06 
7.550000e-01  2.092143132319334e-06 
7.600000e-01  2.109864793575515e-06 
7.650000e-01  2.112520502669132e-06 
7.700000e-01  2.110039698336183e-06 
7.750000e-01  2.106070261024819e-06 
7.800000e-01  2.100980177730122e-06 
7.850000e-01  2.094383265361781e-06 
7.900000e-01  2.085263288896554e-06 
7.950000e-01  2.071281386994720e-06 
8.000000e-01  2.046137001616809e-06 
8.050000e-01  1.987189466584971e-06 
8.100000e-01  1.777703448555034e-06 
8.150000e-01  1.015528361029503e-06 
8.200000e-01  1.752482871677792e-07 
8.250000e-01  -6.539059539858381e-07 
8.300000e-01  -1.484681110063716e-06 
8.350000e-01  -2.316015524573147e-06 
8.400000e-01  -3.141935992383977e-06 
8.450000e-01  -4.001293025371807e-06 
8.500000e-01  -4.426325749714463e-06 
8.550000e-01  -4.524477743551921e-06 
8.600000e-01  -4.557381050946107e-06 
8.650000e-01  -4.572098742892173e-06 
8.700000e-01  -4.579227120228226e-06 
8.750000e-01  -4.581846971559258e-06 
8.800000e-01  -4.580396258004149e-06 
8.850000e-01  -4.572982299145602e-06 
8.900000e-01  -4.551643360461504e-06 
8.950000e-01  -4.477804863992206e-06 
9.000000e-01  -4.144344455182132e-06 
9.050000e-01  -3.612863131425505e-06 
9.100000e-01  -3.102274735588205e-06 
9.150000e-01  -2.588133595980581e-06 
9.200000e-01  -2.075486053127496e-06 
9.250000e-01  -1.556653476215982e-06 
9.300000e-01  -1.080195553595218e-06 
9.350000e-01  -9.466276765987164e-07 
9.400000e-01  -9.093260204998232e-07 
9.450000e-01  -8.934939383556242e-07 
9.500000e-01  -8.846888850493255e-07 
9.550000e-01  -8.789157692792882e-07 
9.600000e-01  -8.746861041462766e-07 
9.650000e-01  -8.713265909446414e-07 
9.700000e-01  -8.684980497183275e-07 
9.750000e-01  -8.660686945614110e-07 
9.800000e-01  -8.644032000594647e-07 
9.850000e-01  -8.641970760456356e-07 
9.900000e-01  -8.642192213714262e-07 
9.950000e-01  -8.642182718483745e-07 
1.000000e+00  -8.642195917256321e-07 
