TITLE ="t=563.288398" 
VARIABLES = "x"                 "mu" 
ZONE I=201, ZONETYPE=Ordered, DATAPACKING=POINT
0.000000e+00  1.453385305120077e-05 
5.000000e-03  1.453253277425538e-05 
1.000000e-02  1.452940145474298e-05 
1.500000e-02  1.452552304566545e-05 
2.000000e-02  1.452096578107736e-05 
2.500000e-02  1.451540584174272e-05 
3.000000e-02  1.450816497433479e-05 
3.500000e-02  1.449784467944549e-05 
4.000000e-02  1.448112010142655e-05 
4.500000e-02  1.444802050749967e-05 
5.000000e-02  1.435574737810783e-05 
5.500000e-02  1.395060207408734e-05 
6.000000e-02  1.353533249749668e-05 
6.500000e-02  1.343460773566476e-05 
7.000000e-02  1.339267684186934e-05 
7.500000e-02  1.336585216438999e-05 
8.000000e-02  1.334319727584463e-05 
8.500000e-02  1.331970387987278e-05 
9.000000e-02  1.329050373199226e-05 
9.500000e-02  1.324636951569560e-05 
1.000000e-01  1.315973177163413e-05 
1.050000e-01  1.290396017468026e-05 
1.100000e-01  1.176995097627383e-05 
1.150000e-01  1.062617632261753e-05 
1.200000e-01  1.035874814220236e-05 
1.250000e-01  1.025892385858145e-05 
1.300000e-01  1.019952459111006e-05 
1.350000e-01  1.015176460793001e-05 
1.400000e-01  1.010411734624165e-05 
1.450000e-01  1.004702778942291e-05 
1.500000e-01  9.964357329830658e-06 
1.550000e-01  9.811773074277404e-06 
1.600000e-01  9.402280705433641e-06 
1.650000e-01  7.703698126499568e-06 
1.700000e-01  4.177020826285493e-06 
1.750000e-01  7.310067033618475e-07 
1.800000e-01  -2.366229096309001e-06 
1.850000e-01  -3.197794837770058e-06 
1.900000e-01  -3.433000839671257e-06 
1.950000e-01  -3.533100347026279e-06 
2.000000e-01  -3.587943506572986e-06 
2.050000e-01  -3.622564254236794e-06 
2.100000e-01  -3.645954327600349e-06 
2.150000e-01  -3.661245533269030e-06 
2.200000e-01  -3.667312314747659e-06 
2.250000e-01  -3.652588369469980e-06 
2.300000e-01  -3.548981280763122e-06 
2.350000e-01  -3.173191563292237e-06 
2.400000e-01  -2.778892055822168e-06 
2.450000e-01  -2.386904191882099e-06 
2.500000e-01  -1.997203295006056e-06 
2.550000e-01  -1.590946056149184e-06 
2.600000e-01  -1.368975626369232e-06 
2.650000e-01  -1.315608407310932e-06 
2.700000e-01  -1.295574243751669e-06 
2.750000e-01  -1.284139185077135e-06 
2.800000e-01  -1.275536629157151e-06 
2.850000e-01  -1.267537891010233e-06 
2.900000e-01  -1.258515323741186e-06 
2.950000e-01  -1.245965987590451e-06 
3.000000e-01  -1.223035449735847e-06 
3.050000e-01  -1.159490749210776e-06 
3.100000e-01  -8.911255084357604e-07 
3.150000e-01  -4.295404730485844e-07 
3.200000e-01  1.310462427948750e-08 
3.250000e-01  4.593037597392915e-07 
3.300000e-01  9.019487323724818e-07 
3.350000e-01  1.363502503194828e-06 
3.400000e-01  1.612731495276651e-06 
3.450000e-01  1.672632694556919e-06 
3.500000e-01  1.695091206867528e-06 
3.550000e-01  1.707840238769132e-06 
3.600000e-01  1.717353912309507e-06 
3.650000e-01  1.726118996862925e-06 
3.700000e-01  1.735918792789136e-06 
3.750000e-01  1.749450550984027e-06 
3.800000e-01  1.774067592959279e-06 
3.850000e-01  1.842254601864715e-06 
3.900000e-01  2.130048809918432e-06 
3.950000e-01  2.619514140390868e-06 
4.000000e-01  3.089035314282974e-06 
4.050000e-01  3.561814541736014e-06 
4.100000e-01  4.034090972484130e-06 
4.150000e-01  4.506448490972876e-06 
4.200000e-01  4.978795988473486e-06 
4.250000e-01  5.451145798828160e-06 
4.300000e-01  5.923507366341335e-06 
4.350000e-01  6.395805649653407e-06 
4.400000e-01  6.868522186555553e-06 
4.450000e-01  7.338558243935361e-06 
4.500000e-01  7.825142770733360e-06 
4.550000e-01  8.170899012638986e-06 
4.600000e-01  8.250095715688267e-06 
4.650000e-01  8.273482227372148e-06 
4.700000e-01  8.282848374545333e-06 
4.750000e-01  8.286731235505203e-06 
4.800000e-01  8.287420316667649e-06 
4.850000e-01  8.285204376950200e-06 
4.900000e-01  8.278767670867696e-06 
4.950000e-01  8.263019349508666e-06 
5.000000e-01  8.215777994195517e-06 
5.050000e-01  8.013640453821241e-06 
5.100000e-01  7.537913710645285e-06 
5.150000e-01  7.076200394603735e-06 
5.200000e-01  6.612229138524282e-06 
5.250000e-01  6.148605456270203e-06 
5.300000e-01  5.684924253242443e-06 
5.350000e-01  5.221249103665974e-06 
5.400000e-01  4.757569966659170e-06 
5.450000e-01  4.293890767193829e-06 
5.500000e-01  3.830197432174630e-06 
5.550000e-01  3.366579987761888e-06 
5.600000e-01  2.902464170153195e-06 
5.650000e-01  2.441549754828568e-06 
5.700000e-01  1.961009995840326e-06 
5.750000e-01  1.701971477342761e-06 
5.800000e-01  1.641810559230049e-06 
5.850000e-01  1.621141663880051e-06 
5.900000e-01  1.611046732649229e-06 
5.950000e-01  1.605031030909906e-06 
6.000000e-01  1.601009550070732e-06 
6.050000e-01  1.598176011753598e-06 
6.100000e-01  1.596282436373679e-06 
6.150000e-01  1.595669183625830e-06 
6.200000e-01  1.598836158737035e-06 
6.250000e-01  1.620193245384494e-06 
6.300000e-01  1.658520853440678e-06 
6.350000e-01  1.695282303010610e-06 
6.400000e-01  1.732302106282280e-06 
6.450000e-01  1.769277099232502e-06 
6.500000e-01  1.806298692265024e-06 
6.550000e-01  1.843065968550924e-06 
6.600000e-01  1.881392202362257e-06 
6.650000e-01  1.904363692695422e-06 
6.700000e-01  1.910370338612854e-06 
6.750000e-01  1.913061933922391e-06 
6.800000e-01  1.915006179199105e-06 
6.850000e-01  1.916850944271038e-06 
6.900000e-01  1.918944857835086e-06 
6.950000e-01  1.921709673016573e-06 
7.000000e-01  1.926018938565230e-06 
7.050000e-01  1.934460479239415e-06 
7.100000e-01  1.958421708999891e-06 
7.150000e-01  2.060610599293249e-06 
7.200000e-01  2.251535107209064e-06 
7.250000e-01  2.434681030677815e-06 
7.300000e-01  2.619096957559407e-06 
7.350000e-01  2.803317504965337e-06 
7.400000e-01  2.987565434550840e-06 
7.450000e-01  3.171838250442004e-06 
7.500000e-01  3.355930865466295e-06 
7.550000e-01  3.541183864271191e-06 
7.600000e-01  3.718637180056454e-06 
7.650000e-01  3.770711482565072e-06 
7.700000e-01  3.781825312528892e-06 
7.750000e-01  3.783735234164144e-06 
7.800000e-01  3.782160032343604e-06 
7.850000e-01  3.778198780880698e-06 
7.900000e-01  3.771482186747463e-06 
7.950000e-01  3.760198309750480e-06 
8.000000e-01  3.738996505454902e-06 
8.050000e-01  3.688507595654870e-06 
8.100000e-01  3.509270297065197e-06 
8.150000e-01  2.836763734361272e-06 
8.200000e-01  2.080020471913957e-06 
8.250000e-01  1.335068028159609e-06 
8.300000e-01  5.883749640297185e-07 
8.350000e-01  -1.588120629402118e-07 
8.400000e-01  -9.009098036671800e-07 
8.450000e-01  -1.674406327272049e-06 
8.500000e-01  -2.083605999795718e-06 
8.550000e-01  -2.177894866649759e-06 
8.600000e-01  -2.209560633893977e-06 
8.650000e-01  -2.224217757572348e-06 
8.700000e-01  -2.232043593561892e-06 
8.750000e-01  -2.236118551238660e-06 
8.800000e-01  -2.237236230063273e-06 
8.850000e-01  -2.234591412729418e-06 
8.900000e-01  -2.223875465184609e-06 
8.950000e-01  -2.183911013143635e-06 
9.000000e-01  -1.998516297614446e-06 
9.050000e-01  -1.683543042579197e-06 
9.100000e-01  -1.381370212253399e-06 
9.150000e-01  -1.077027161728194e-06 
9.200000e-01  -7.735268568319608e-07 
9.250000e-01  -4.666848092862997e-07 
9.300000e-01  -1.825235619771057e-07 
9.350000e-01  -1.017020555131770e-07 
9.400000e-01  -7.927307748907373e-08 
9.450000e-01  -6.980621511552200e-08 
9.500000e-01  -6.455879209878064e-08 
9.550000e-01  -6.112610996295561e-08 
9.600000e-01  -5.861564160690502e-08 
9.650000e-01  -5.662481355417837e-08 
9.700000e-01  -5.495134374886045e-08 
9.750000e-01  -5.351635782594220e-08 
9.800000e-01  -5.252756025803818e-08 
9.850000e-01  -5.239652791972080e-08 
9.900000e-01  -5.240977737309464e-08 
9.950000e-01  -5.240916318124656e-08 
1.000000e+00  -5.240995127166836e-08 
