TITLE ="t=0.000256" 
VARIABLES = "x"                 "mu" 
ZONE I=201, ZONETYPE=Ordered, DATAPACKING=POINT
0.000000e+00  -4.306435867576510e-04 
5.000000e-03  -4.453227001170371e-04 
1.000000e-02  -5.472048381162063e-04 
1.500000e-02  -9.151408654453155e-04 
2.000000e-02  -1.717882093314695e-03 
2.500000e-02  -2.754332836923726e-03 
3.000000e-02  -3.235701032293841e-03 
3.500000e-02  -2.200091264423755e-03 
4.000000e-02  5.466294937326761e-04 
4.500000e-02  3.771259081190503e-03 
5.000000e-02  5.260534372957865e-03 
5.500000e-02  3.384979342633980e-03 
6.000000e-02  -1.368995868864592e-03 
6.500000e-02  -6.353307789495928e-03 
7.000000e-02  -8.439884031472450e-03 
7.500000e-02  -6.202185600091664e-03 
8.000000e-02  -9.305669358954821e-04 
8.500000e-02  4.285313469557211e-03 
9.000000e-02  6.664336921486301e-03 
9.500000e-02  5.496114365850808e-03 
1.000000e-01  2.230358727344811e-03 
1.050000e-01  -1.043389849575445e-03 
1.100000e-01  -3.125559861172652e-03 
1.150000e-01  -3.976238337717057e-03 
1.200000e-01  -3.972561105500178e-03 
1.250000e-01  -3.206903238517640e-03 
1.300000e-01  -1.502267041978352e-03 
1.350000e-01  1.031220648644459e-03 
1.400000e-01  3.576836642150019e-03 
1.450000e-01  4.878044766930309e-03 
1.500000e-01  4.090287487800836e-03 
1.550000e-01  1.471989397661427e-03 
1.600000e-01  -1.712568408742008e-03 
1.650000e-01  -3.945279342762847e-03 
1.700000e-01  -4.285124798944294e-03 
1.750000e-01  -2.786571246970727e-03 
1.800000e-01  -3.097201418693483e-04 
1.850000e-01  2.038269263698292e-03 
1.900000e-01  3.386976999265626e-03 
1.950000e-01  3.322010735715131e-03 
2.000000e-01  1.920633319914623e-03 
2.050000e-01  -2.906830648333998e-04 
2.100000e-01  -2.441288150657057e-03 
2.150000e-01  -3.565728282990012e-03 
2.200000e-01  -3.075373750393556e-03 
2.250000e-01  -1.266196464873786e-03 
2.300000e-01  6.388715455538202e-04 
2.350000e-01  1.249471572123645e-03 
2.400000e-01  1.452113782587628e-04 
2.450000e-01  -1.640489731847795e-03 
2.500000e-01  -2.393245222387051e-03 
2.550000e-01  -1.209134530241966e-03 
2.600000e-01  1.051993332309813e-03 
2.650000e-01  2.330150245234189e-03 
2.700000e-01  1.204118449103041e-03 
2.750000e-01  -1.619169360234284e-03 
2.800000e-01  -3.743453261102245e-03 
2.850000e-01  -3.187266696528578e-03 
2.900000e-01  -2.097595427509519e-04 
2.950000e-01  2.887760464248465e-03 
3.000000e-01  3.844538602965316e-03 
3.050000e-01  2.447880854099956e-03 
3.100000e-01  5.470824916150819e-04 
3.150000e-01  8.660320510603132e-05 
3.200000e-01  1.104549155553102e-03 
3.250000e-01  1.720649524925188e-03 
3.300000e-01  2.351229557688199e-04 
3.350000e-01  -2.748521627674647e-03 
3.400000e-01  -4.495216659756153e-03 
3.450000e-01  -2.716104638107069e-03 
3.500000e-01  1.924477035452162e-03 
3.550000e-01  6.023516756298248e-03 
3.600000e-01  6.331559898247990e-03 
3.650000e-01  2.637047942148424e-03 
3.700000e-01  -2.128046151853022e-03 
3.750000e-01  -4.563966040670176e-03 
3.800000e-01  -3.572489222157348e-03 
3.850000e-01  -8.525553275550773e-04 
3.900000e-01  9.525060908559136e-04 
3.950000e-01  5.645768008353744e-04 
4.000000e-01  -1.139836832715676e-03 
4.050000e-01  -2.259662199612072e-03 
4.100000e-01  -1.658040214719189e-03 
4.150000e-01  1.810868114485715e-04 
4.200000e-01  1.749162494763478e-03 
4.250000e-01  1.809375893063072e-03 
4.300000e-01  3.023020939667226e-04 
4.350000e-01  -1.699126886715492e-03 
4.400000e-01  -2.816011567642247e-03 
4.450000e-01  -2.343290201258968e-03 
4.500000e-01  -7.137583830661520e-04 
4.550000e-01  8.986329979465904e-04 
4.600000e-01  1.535242437876612e-03 
4.650000e-01  1.120705433954835e-03 
4.700000e-01  2.842782113206149e-04 
4.750000e-01  -3.484387483808989e-04 
4.800000e-01  -6.432575741623129e-04 
4.850000e-01  -8.397922384570811e-04 
4.900000e-01  -1.074003640495139e-03 
4.950000e-01  -1.071583021382306e-03 
5.000000e-01  -3.506897043844513e-04 
5.050000e-01  1.187303939562053e-03 
5.100000e-01  2.845757924333723e-03 
5.150000e-01  3.453700815414306e-03 
5.200000e-01  2.319092181515685e-03 
5.250000e-01  -2.960898093936227e-05 
5.300000e-01  -2.093187086405472e-03 
5.350000e-01  -2.465799633581692e-03 
5.400000e-01  -8.286501184129854e-04 
5.450000e-01  1.831231979819090e-03 
5.500000e-01  3.891461619396420e-03 
5.550000e-01  4.177396612169573e-03 
5.600000e-01  2.675279319093964e-03 
5.650000e-01  3.862831901044912e-04 
5.700000e-01  -1.453456425895733e-03 
5.750000e-01  -2.079224533122382e-03 
5.800000e-01  -1.372147990265012e-03 
5.850000e-01  3.199872968721502e-04 
5.900000e-01  2.324352578538465e-03 
5.950000e-01  3.722656081460841e-03 
6.000000e-01  3.651842651902125e-03 
6.050000e-01  1.857811775889037e-03 
6.100000e-01  -9.276325308558040e-04 
6.150000e-01  -3.228174148367857e-03 
6.200000e-01  -3.690260012175005e-03 
6.250000e-01  -2.075668526680915e-03 
6.300000e-01  4.248044658915448e-04 
6.350000e-01  2.001974402281249e-03 
6.400000e-01  1.646966692413294e-03 
6.450000e-01  -1.624069516120371e-05 
6.500000e-01  -1.288705112653288e-03 
6.550000e-01  -8.951747193558807e-04 
6.600000e-01  9.032902922805810e-04 
6.650000e-01  2.547291600517289e-03 
6.700000e-01  2.539286359039649e-03 
6.750000e-01  7.318787195320774e-04 
6.800000e-01  -1.552696803589495e-03 
6.850000e-01  -2.606076524881490e-03 
6.900000e-01  -1.621483891380655e-03 
6.950000e-01  8.589768939575282e-04 
7.000000e-01  3.469879772829310e-03 
7.050000e-01  4.878884867729567e-03 
7.100000e-01  4.422759557587061e-03 
7.150000e-01  2.361595698876633e-03 
7.200000e-01  -2.457995442991009e-04 
7.250000e-01  -1.998747213880072e-03 
7.300000e-01  -1.849661324341109e-03 
7.350000e-01  2.291980330210908e-04 
7.400000e-01  3.090282324966926e-03 
7.450000e-01  5.041298178314679e-03 
7.500000e-01  4.933718698124539e-03 
7.550000e-01  2.971333140567124e-03 
7.600000e-01  5.643378578508271e-04 
7.650000e-01  -7.924363016483555e-04 
7.700000e-01  -6.795786880874591e-04 
7.750000e-01  1.399361754417183e-04 
7.800000e-01  6.774451444954995e-04 
7.850000e-01  6.667256868531579e-04 
7.900000e-01  5.844799173566854e-04 
7.950000e-01  8.973000904490856e-04 
8.000000e-01  1.442342133118575e-03 
8.050000e-01  1.572808306927120e-03 
8.100000e-01  8.492104473385739e-04 
8.150000e-01  -4.529584439879692e-04 
8.200000e-01  -1.540753098755826e-03 
8.250000e-01  -1.835719454654608e-03 
8.300000e-01  -1.505446811670937e-03 
8.350000e-01  -1.220891699828179e-03 
8.400000e-01  -1.389987737910621e-03 
8.450000e-01  -1.679971009009898e-03 
8.500000e-01  -1.325561503564628e-03 
8.550000e-01  3.960308717656461e-05 
8.600000e-01  1.799437631354173e-03 
8.650000e-01  2.631829225195423e-03 
8.700000e-01  1.530444853219278e-03 
8.750000e-01  -1.231179430364761e-03 
8.800000e-01  -4.047995207284794e-03 
8.850000e-01  -5.016356792083437e-03 
8.900000e-01  -3.327068353584197e-03 
8.950000e-01  9.238306476856131e-05 
9.000000e-01  3.208065370755849e-03 
9.050000e-01  4.228686952260907e-03 
9.100000e-01  2.679746104239503e-03 
9.150000e-01  -4.196838888358142e-04 
9.200000e-01  -3.273448467657051e-03 
9.250000e-01  -4.377985285479891e-03 
9.300000e-01  -3.290366112666967e-03 
9.350000e-01  -7.555988381577352e-04 
9.400000e-01  1.748095039393083e-03 
9.450000e-01  2.776421664510345e-03 
9.500000e-01  1.679119113414120e-03 
9.550000e-01  -9.619858987608503e-04 
9.600000e-01  -3.535129649188736e-03 
9.650000e-01  -4.349623445781497e-03 
9.700000e-01  -2.848483862460110e-03 
9.750000e-01  -1.200109372792484e-04 
9.800000e-01  1.847298613540851e-03 
9.850000e-01  1.635585872112807e-03 
9.900000e-01  -5.680399790566019e-04 
9.950000e-01  -3.154085799073387e-03 
1.000000e+00  -4.279999876711366e-03 
