TITLE ="t=1003.288398" 
VARIABLES = "x"                 "mu" 
ZONE I=201, ZONETYPE=Ordered, DATAPACKING=POINT
0.000000e+00  4.627448928148933e-06 
5.000000e-03  4.625980671373531e-06 
1.000000e-02  4.622900044713375e-06 
1.500000e-02  4.619180676370702e-06 
2.000000e-02  4.614821752109748e-06 
2.500000e-02  4.609491076225944e-06 
3.000000e-02  4.602514809608935e-06 
3.500000e-02  4.592497115960574e-06 
4.000000e-02  4.576074680558520e-06 
4.500000e-02  4.542940075176890e-06 
5.000000e-02  4.447487996183009e-06 
5.500000e-02  4.020784871206567e-06 
6.000000e-02  3.584799875248059e-06 
6.500000e-02  3.482437526829133e-06 
7.000000e-02  3.442256491177766e-06 
7.500000e-02  3.417819267120203e-06 
8.000000e-02  3.398055439726660e-06 
8.500000e-02  3.378309159032122e-06 
9.000000e-02  3.354553022513599e-06 
9.500000e-02  3.319727656255660e-06 
1.000000e-01  3.253612112353862e-06 
1.050000e-01  3.066262237578991e-06 
1.100000e-01  2.234818961987986e-06 
1.150000e-01  1.439293368590224e-06 
1.200000e-01  1.255257973716598e-06 
1.250000e-01  1.185813380295634e-06 
1.300000e-01  1.145656422335085e-06 
1.350000e-01  1.114902663702415e-06 
1.400000e-01  1.085748737124917e-06 
1.450000e-01  1.052263263046751e-06 
1.500000e-01  1.005008866693750e-06 
1.550000e-01  9.178977287352395e-07 
1.600000e-01  6.761487059795204e-07 
1.650000e-01  -3.467405216147349e-07 
1.700000e-01  -2.129844729566097e-06 
1.750000e-01  -3.908264013058267e-06 
1.800000e-01  -5.062430880401341e-06 
1.850000e-01  -5.327057813228371e-06 
1.900000e-01  -5.412111529645766e-06 
1.950000e-01  -5.451343311387366e-06 
2.000000e-01  -5.473258474258645e-06 
2.050000e-01  -5.486482999050377e-06 
2.100000e-01  -5.493899632850600e-06 
2.150000e-01  -5.495439149968452e-06 
2.200000e-01  -5.486541203695619e-06 
2.250000e-01  -5.443893182098674e-06 
2.300000e-01  -5.234584129515962e-06 
2.350000e-01  -4.791817508840199e-06 
2.400000e-01  -4.365830100705827e-06 
2.450000e-01  -3.936669853807506e-06 
2.500000e-01  -3.510852358730296e-06 
2.550000e-01  -3.067028288505191e-06 
2.600000e-01  -2.833333461938403e-06 
2.650000e-01  -2.776456753350380e-06 
2.700000e-01  -2.754533435710763e-06 
2.750000e-01  -2.741661601840027e-06 
2.800000e-01  -2.731687745291577e-06 
2.850000e-01  -2.722136424129649e-06 
2.900000e-01  -2.711058733478196e-06 
2.950000e-01  -2.695259137144772e-06 
3.000000e-01  -2.665728902319426e-06 
3.050000e-01  -2.582144651469911e-06 
3.100000e-01  -2.226948292112446e-06 
3.150000e-01  -1.637329042467264e-06 
3.200000e-01  -1.071612980902179e-06 
3.250000e-01  -5.014053336399090e-07 
3.300000e-01  6.425286522869228e-08 
3.350000e-01  6.541558540385034e-07 
3.400000e-01  9.770731696144384e-07 
3.450000e-01  1.053581412484861e-06 
3.500000e-01  1.081286507843534e-06 
3.550000e-01  1.096234843442846e-06 
3.600000e-01  1.106689353608983e-06 
3.650000e-01  1.115626348469913e-06 
3.700000e-01  1.124859877418378e-06 
3.750000e-01  1.136683072588169e-06 
3.800000e-01  1.156862982011838e-06 
3.850000e-01  1.210313513279429e-06 
3.900000e-01  1.432009945925801e-06 
3.950000e-01  1.813843740827591e-06 
4.000000e-01  2.180061552575658e-06 
4.050000e-01  2.548829402269196e-06 
4.100000e-01  2.917202506407658e-06 
4.150000e-01  3.285638056236642e-06 
4.200000e-01  3.654064762096306e-06 
4.250000e-01  4.022492142960782e-06 
4.300000e-01  4.390928632573938e-06 
4.350000e-01  4.759308977016717e-06 
4.400000e-01  5.128051912818869e-06 
4.450000e-01  5.494461596529173e-06 
4.500000e-01  5.875212771605366e-06 
4.550000e-01  6.126113229973956e-06 
4.600000e-01  6.183358671889621e-06 
4.650000e-01  6.201197912865140e-06 
4.700000e-01  6.208978287827337e-06 
4.750000e-01  6.212866825110044e-06 
4.800000e-01  6.214635442437227e-06 
4.850000e-01  6.214703674764196e-06 
4.900000e-01  6.212573765426391e-06 
4.950000e-01  6.205822947777062e-06 
5.000000e-01  6.183310690045541e-06 
5.050000e-01  6.082525658680091e-06 
5.100000e-01  5.866134549037649e-06 
5.150000e-01  5.657634937492267e-06 
5.200000e-01  5.447853664882954e-06 
5.250000e-01  5.238269829052196e-06 
5.300000e-01  5.028653743402037e-06 
5.350000e-01  4.819041488846922e-06 
5.400000e-01  4.609427442195829e-06 
5.450000e-01  4.399813588582568e-06 
5.500000e-01  4.190193707752647e-06 
5.550000e-01  3.980607797440003e-06 
5.600000e-01  3.770801130132122e-06 
5.650000e-01  3.562415040698258e-06 
5.700000e-01  3.345315190011026e-06 
5.750000e-01  3.233148709572913e-06 
5.800000e-01  3.206944881271387e-06 
5.850000e-01  3.197827520041050e-06 
5.900000e-01  3.193340606550797e-06 
5.950000e-01  3.190653589702562e-06 
6.000000e-01  3.188850185795417e-06 
6.050000e-01  3.187574098073265e-06 
6.100000e-01  3.186715336799133e-06 
6.150000e-01  3.186426481747905e-06 
6.200000e-01  3.187835626892150e-06 
6.250000e-01  3.197356135537158e-06 
6.300000e-01  3.213742511818515e-06 
6.350000e-01  3.229468441888225e-06 
6.400000e-01  3.245303707405248e-06 
6.450000e-01  3.261120514550416e-06 
6.500000e-01  3.276957267093640e-06 
6.550000e-01  3.292688951736364e-06 
6.600000e-01  3.309072358047794e-06 
6.650000e-01  3.319898294463092e-06 
6.700000e-01  3.323893180589779e-06 
6.750000e-01  3.326670028556053e-06 
6.800000e-01  3.329383454870172e-06 
6.850000e-01  3.332462420137166e-06 
6.900000e-01  3.336344699344687e-06 
6.950000e-01  3.341801375358023e-06 
7.000000e-01  3.350619494606903e-06 
7.050000e-01  3.368199823564448e-06 
7.100000e-01  3.418185956437724e-06 
7.150000e-01  3.631248143377018e-06 
7.200000e-01  4.045031681349004e-06 
7.250000e-01  4.442244319200693e-06 
7.300000e-01  4.842158035604367e-06 
7.350000e-01  5.241652611358332e-06 
7.400000e-01  5.641210358779713e-06 
7.450000e-01  6.040770817164970e-06 
7.500000e-01  6.440248464395245e-06 
7.550000e-01  6.840264387491886e-06 
7.600000e-01  7.236788682508711e-06 
7.650000e-01  7.369405203981445e-06 
7.700000e-01  7.400944497667325e-06 
7.750000e-01  7.410842146488347e-06 
7.800000e-01  7.413584820926721e-06 
7.850000e-01  7.412509309300551e-06 
7.900000e-01  7.408095338260609e-06 
7.950000e-01  7.399062974532642e-06 
8.000000e-01  7.380848662556182e-06 
8.050000e-01  7.336871649804321e-06 
8.100000e-01  7.183268216869559e-06 
8.150000e-01  6.566448467432890e-06 
8.200000e-01  5.827004455748604e-06 
8.250000e-01  5.103871710273028e-06 
8.300000e-01  4.378257519426902e-06 
8.350000e-01  3.652280656778457e-06 
8.400000e-01  2.931254865424172e-06 
8.450000e-01  2.179575329090291e-06 
8.500000e-01  1.740473277780002e-06 
8.550000e-01  1.638283356751926e-06 
8.600000e-01  1.603087194932849e-06 
8.650000e-01  1.585270035388698e-06 
8.700000e-01  1.573811867375988e-06 
8.750000e-01  1.565035886609910e-06 
8.800000e-01  1.557145184476170e-06 
8.850000e-01  1.548582676313166e-06 
8.900000e-01  1.536342992648535e-06 
8.950000e-01  1.508595999891755e-06 
9.000000e-01  1.401621576036364e-06 
9.050000e-01  1.206727543735067e-06 
9.100000e-01  1.019808213184906e-06 
9.150000e-01  8.315401778314697e-07 
9.200000e-01  6.437846164998934e-07 
9.250000e-01  4.540300525718722e-07 
9.300000e-01  2.778019569880483e-07 
9.350000e-01  2.274210233240600e-07 
9.400000e-01  2.134707273150340e-07 
9.450000e-01  2.075941952831325e-07 
9.500000e-01  2.043407944621420e-07 
9.550000e-01  2.022143098842951e-07 
9.600000e-01  2.006601577962952e-07 
9.650000e-01  1.994284524078697e-07 
9.700000e-01  1.983937585239946e-07 
9.750000e-01  1.975071308800790e-07 
9.800000e-01  1.968953168968994e-07 
9.850000e-01  1.968125180306416e-07 
9.900000e-01  1.968207970505453e-07 
9.950000e-01  1.968204418464534e-07 
1.000000e+00  1.968209422011526e-07 
