TITLE ="t=393.288398" 
VARIABLES = "x"                 "mu" 
ZONE I=201, ZONETYPE=Ordered, DATAPACKING=POINT
0.000000e+00  1.805510116669344e-05 
5.000000e-03  1.805313029410732e-05 
1.000000e-02  1.804818809117359e-05 
1.500000e-02  1.804199601975190e-05 
2.000000e-02  1.803471338794559e-05 
2.500000e-02  1.802583838955864e-05 
3.000000e-02  1.801430412293517e-05 
3.500000e-02  1.799791471360875e-05 
4.000000e-02  1.797147763047095e-05 
4.500000e-02  1.791955632379613e-05 
5.000000e-02  1.777672340388002e-05 
5.500000e-02  1.715612457281611e-05 
6.000000e-02  1.651573716030907e-05 
6.500000e-02  1.636078398875986e-05 
7.000000e-02  1.629724445540662e-05 
7.500000e-02  1.625776682046729e-05 
8.000000e-02  1.622552513021217e-05 
8.500000e-02  1.619311102468006e-05 
9.000000e-02  1.615381203252178e-05 
9.500000e-02  1.609540371215996e-05 
1.000000e-01  1.598156308156173e-05 
1.050000e-01  1.564439888585410e-05 
1.100000e-01  1.416041134096595e-05 
1.150000e-01  1.264246510916770e-05 
1.200000e-01  1.229252407769239e-05 
1.250000e-01  1.217055946574971e-05 
1.300000e-01  1.210403901156189e-05 
1.350000e-01  1.205529816665101e-05 
1.400000e-01  1.201081701093463e-05 
1.450000e-01  1.196156609773537e-05 
1.500000e-01  1.189480722016007e-05 
1.550000e-01  1.177805159727045e-05 
1.600000e-01  1.147857579708066e-05 
1.650000e-01  1.026711440686541e-05 
1.700000e-01  7.597464055018124e-06 
1.750000e-01  4.995961571610107e-06 
1.800000e-01  2.533535677159206e-06 
1.850000e-01  1.809620735666256e-06 
1.900000e-01  1.608856197234312e-06 
1.950000e-01  1.522849534625494e-06 
2.000000e-01  1.473281864453232e-06 
2.050000e-01  1.438491262593452e-06 
2.100000e-01  1.409828225971417e-06 
2.150000e-01  1.381961861372758e-06 
2.200000e-01  1.348261117344631e-06 
2.250000e-01  1.290488289700465e-06 
2.300000e-01  1.119655151144809e-06 
2.350000e-01  5.321894641984996e-07 
2.400000e-01  -1.107111171919750e-07 
2.450000e-01  -7.462463933859607e-07 
2.500000e-01  -1.378695742519382e-06 
2.550000e-01  -2.037623043951177e-06 
2.600000e-01  -2.382773963115666e-06 
2.650000e-01  -2.460884869027375e-06 
2.700000e-01  -2.485770074645175e-06 
2.750000e-01  -2.495925366983236e-06 
2.800000e-01  -2.499775821102990e-06 
2.850000e-01  -2.499564012985762e-06 
2.900000e-01  -2.495198704686825e-06 
2.950000e-01  -2.484128889212577e-06 
3.000000e-01  -2.456834817351597e-06 
3.050000e-01  -2.368531418528670e-06 
3.100000e-01  -1.975479888481671e-06 
3.150000e-01  -1.315660231543120e-06 
3.200000e-01  -6.826595274063077e-07 
3.250000e-01  -4.462032976167999e-08 
3.300000e-01  5.883446348939207e-07 
3.350000e-01  1.248337910425594e-06 
3.400000e-01  1.603976175536264e-06 
3.450000e-01  1.688819111923108e-06 
3.500000e-01  1.720056826210751e-06 
3.550000e-01  1.737283360760293e-06 
3.600000e-01  1.749666481247226e-06 
3.650000e-01  1.760601284266260e-06 
3.700000e-01  1.772308391306841e-06 
3.750000e-01  1.787844313390504e-06 
3.800000e-01  1.815226533730774e-06 
3.850000e-01  1.889571454688896e-06 
3.900000e-01  2.200879475301140e-06 
3.950000e-01  2.729271735143904e-06 
4.000000e-01  3.236140658223300e-06 
4.050000e-01  3.746525349364639e-06 
4.100000e-01  4.256367452286800e-06 
4.150000e-01  4.766297140610646e-06 
4.200000e-01  5.276216153160918e-06 
4.250000e-01  5.786138016384641e-06 
4.300000e-01  6.296072123045208e-06 
4.350000e-01  6.805943196167203e-06 
4.400000e-01  7.316235007180992e-06 
4.450000e-01  7.823835985483071e-06 
4.500000e-01  8.348094316150515e-06 
4.550000e-01  8.734585303053545e-06 
4.600000e-01  8.823779770103058e-06 
4.650000e-01  8.849502563062192e-06 
4.700000e-01  8.859433071923818e-06 
4.750000e-01  8.863192205214695e-06 
4.800000e-01  8.863294141715382e-06 
4.850000e-01  8.859965805270783e-06 
4.900000e-01  8.851538088119855e-06 
4.950000e-01  8.831814704794063e-06 
5.000000e-01  8.774310071498384e-06 
5.050000e-01  8.532368557074359e-06 
5.100000e-01  7.934503669414609e-06 
5.150000e-01  7.351096358857590e-06 
5.200000e-01  6.765372597002449e-06 
5.250000e-01  6.180004823981713e-06 
5.300000e-01  5.594577230681589e-06 
5.350000e-01  5.009155098951404e-06 
5.400000e-01  4.423728058949660e-06 
5.450000e-01  3.838300689110196e-06 
5.500000e-01  3.252855163689970e-06 
5.550000e-01  2.667505676184685e-06 
5.600000e-01  2.081523558960936e-06 
5.650000e-01  1.499603260672913e-06 
5.700000e-01  8.927883516059763e-07 
5.750000e-01  5.560140401663018e-07 
5.800000e-01  4.785327116069331e-07 
5.850000e-01  4.525913414149520e-07 
5.900000e-01  4.404089863775574e-07 
5.950000e-01  4.336257908935280e-07 
6.000000e-01  4.296688159405884e-07 
6.050000e-01  4.277378120235639e-07 
6.100000e-01  4.280839969268025e-07 
6.150000e-01  4.329037190312308e-07 
6.200000e-01  4.532992299881166e-07 
6.250000e-01  5.511098079209686e-07 
6.300000e-01  7.259021779366287e-07 
6.350000e-01  8.935263914818065e-07 
6.400000e-01  1.062327535955552e-06 
6.450000e-01  1.230920415085349e-06 
6.500000e-01  1.399722952553216e-06 
6.550000e-01  1.567360833816303e-06 
6.600000e-01  1.742113320552233e-06 
6.650000e-01  1.845023284606881e-06 
6.700000e-01  1.868943570704106e-06 
6.750000e-01  1.877145433866910e-06 
6.800000e-01  1.881276440814928e-06 
6.850000e-01  1.883915766353106e-06 
6.900000e-01  1.885918961479995e-06 
6.950000e-01  1.887697032424632e-06 
7.000000e-01  1.889592342077262e-06 
7.050000e-01  1.892240663371545e-06 
7.100000e-01  1.898105765943175e-06 
7.150000e-01  1.920430773799153e-06 
7.200000e-01  1.961368644037772e-06 
7.250000e-01  2.000636789317504e-06 
7.300000e-01  2.040177889602750e-06 
7.350000e-01  2.079677557983828e-06 
7.400000e-01  2.119183420294521e-06 
7.450000e-01  2.158698067012576e-06 
7.500000e-01  2.198159136188399e-06 
7.550000e-01  2.237970415104796e-06 
7.600000e-01  2.275327770340147e-06 
7.650000e-01  2.283866615183098e-06 
7.700000e-01  2.283027011868587e-06 
7.750000e-01  2.279776952507595e-06 
7.800000e-01  2.275120833984336e-06 
7.850000e-01  2.268851509791229e-06 
7.900000e-01  2.260031709089161e-06 
7.950000e-01  2.246387678503087e-06 
8.000000e-01  2.221736739521407e-06 
8.050000e-01  2.163842939407980e-06 
8.100000e-01  1.958100799684207e-06 
8.150000e-01  1.207126361350247e-06 
8.200000e-01  3.775497319974745e-07 
8.250000e-01  -4.408496281426172e-07 
8.300000e-01  -1.260879454185391e-06 
8.350000e-01  -2.081462712339784e-06 
8.400000e-01  -2.896662434588695e-06 
8.450000e-01  -3.745102838770777e-06 
8.500000e-01  -4.168061257010869e-06 
8.550000e-01  -4.265677581712876e-06 
8.600000e-01  -4.298390113168179e-06 
8.650000e-01  -4.313064888485717e-06 
8.700000e-01  -4.320240289769903e-06 
8.750000e-01  -4.322991501795212e-06 
8.800000e-01  -4.321791180284705e-06 
8.850000e-01  -4.314860229117739e-06 
8.900000e-01  -4.294627632726171e-06 
8.950000e-01  -4.224413052642184e-06 
9.000000e-01  -3.906763498344243e-06 
9.050000e-01  -3.396877818084166e-06 
9.100000e-01  -2.907135599539495e-06 
9.150000e-01  -2.413969543735151e-06 
9.200000e-01  -1.922227818410090e-06 
9.250000e-01  -1.424620612882232e-06 
9.300000e-01  -9.671506656872200e-07 
9.350000e-01  -8.386702335023697e-07 
9.400000e-01  -8.028184781962608e-07 
9.450000e-01  -7.876126038441439e-07 
9.500000e-01  -7.791594454288846e-07 
9.550000e-01  -7.736186746396534e-07 
9.600000e-01  -7.695601659598514e-07 
9.650000e-01  -7.663372570088739e-07 
9.700000e-01  -7.636242942578102e-07 
9.750000e-01  -7.612946928455405e-07 
9.800000e-01  -7.596965471172034e-07 
9.850000e-01  -7.594969902982670e-07 
9.900000e-01  -7.595182663082395e-07 
9.950000e-01  -7.595173462811453e-07 
1.000000e+00  -7.595186143692602e-07 
