TITLE ="t=403.288398" 
VARIABLES = "x"                 "mu" 
ZONE I=201, ZONETYPE=Ordered, DATAPACKING=POINT
0.000000e+00  1.779522099034186e-05 
5.000000e-03  1.779333552059011e-05 
1.000000e-02  1.778862859176879e-05 
1.500000e-02  1.778273663507619e-05 
2.000000e-02  1.777580740003037e-05 
2.500000e-02  1.776736226825501e-05 
3.000000e-02  1.775638484565257e-05 
3.500000e-02  1.774078290407396e-05 
4.000000e-02  1.771560691346144e-05 
4.500000e-02  1.766613271444458e-05 
5.000000e-02  1.752989015867384e-05 
5.500000e-02  1.693740889835068e-05 
6.000000e-02  1.632681824837876e-05 
6.500000e-02  1.617906524216708e-05 
7.000000e-02  1.611842446594806e-05 
7.500000e-02  1.608068060395095e-05 
8.000000e-02  1.604978948197172e-05 
8.500000e-02  1.601866995604561e-05 
9.000000e-02  1.598087673806642e-05 
9.500000e-02  1.592463937524283e-05 
1.000000e-01  1.581496740850054e-05 
1.050000e-01  1.549018210947732e-05 
1.100000e-01  1.406007507498849e-05 
1.150000e-01  1.259587916285268e-05 
1.200000e-01  1.225792147833410e-05 
1.250000e-01  1.213960023544643e-05 
1.300000e-01  1.207462692759560e-05 
1.350000e-01  1.202662914130610e-05 
1.400000e-01  1.198244909915655e-05 
1.450000e-01  1.193313392713113e-05 
1.500000e-01  1.186582025514122e-05 
1.550000e-01  1.174745087546302e-05 
1.600000e-01  1.144268760595687e-05 
1.650000e-01  1.020758480564617e-05 
1.700000e-01  7.489252453349761e-06 
1.750000e-01  4.839935509597915e-06 
1.800000e-01  2.336945591291190e-06 
1.850000e-01  1.604159914070987e-06 
1.900000e-01  1.400873248213008e-06 
1.950000e-01  1.313898668527710e-06 
2.000000e-01  1.263959200837166e-06 
2.050000e-01  1.229134464109685e-06 
2.100000e-01  1.200731284337613e-06 
2.150000e-01  1.173523331787213e-06 
2.200000e-01  1.141273064490962e-06 
2.250000e-01  1.087227836890188e-06 
2.300000e-01  9.300970210630414e-07 
2.350000e-01  3.944635521230014e-07 
2.400000e-01  -1.902927602005057e-07 
2.450000e-01  -7.685178810257770e-07 
2.500000e-01  -1.343902578214638e-06 
2.550000e-01  -1.943419571412380e-06 
2.600000e-01  -2.258520651200996e-06 
2.650000e-01  -2.329665031547799e-06 
2.700000e-01  -2.352178546721686e-06 
2.750000e-01  -2.361226591790219e-06 
2.800000e-01  -2.364482142381854e-06 
2.850000e-01  -2.363958721848259e-06 
2.900000e-01  -2.359507232034602e-06 
2.950000e-01  -2.348642483544930e-06 
3.000000e-01  -2.322192658330262e-06 
3.050000e-01  -2.237117551802191e-06 
3.100000e-01  -1.859038085096481e-06 
3.150000e-01  -1.222291387277536e-06 
3.200000e-01  -6.114605763204009e-07 
3.250000e-01  4.238585315022166e-09 
3.300000e-01  6.150399111247872e-07 
3.350000e-01  1.251926312106808e-06 
3.400000e-01  1.595278911890024e-06 
3.450000e-01  1.677253448927919e-06 
3.500000e-01  1.707492363736970e-06 
3.550000e-01  1.724221135999894e-06 
3.600000e-01  1.736297746830528e-06 
3.650000e-01  1.747015524378021e-06 
3.700000e-01  1.758551524220745e-06 
3.750000e-01  1.773937906204984e-06 
3.800000e-01  1.801168836053645e-06 
3.850000e-01  1.875297207607584e-06 
3.900000e-01  2.186028361896219e-06 
3.950000e-01  2.713702175572304e-06 
4.000000e-01  3.219879562586401e-06 
4.050000e-01  3.729568405512403e-06 
4.100000e-01  4.238715368474509e-06 
4.150000e-01  4.747949835341888e-06 
4.200000e-01  5.257173660393189e-06 
4.250000e-01  5.766400336795934e-06 
4.300000e-01  6.275639293467931e-06 
4.350000e-01  6.784814982893690e-06 
4.400000e-01  7.294412845313167e-06 
4.450000e-01  7.801310455063628e-06 
4.500000e-01  8.324920906327597e-06 
4.550000e-01  8.710068377604497e-06 
4.600000e-01  8.798908023492089e-06 
4.650000e-01  8.824571587247216e-06 
4.700000e-01  8.834507708350917e-06 
4.750000e-01  8.838298518316080e-06 
4.800000e-01  8.838453036463012e-06 
4.850000e-01  8.835205339851526e-06 
4.900000e-01  8.826909173917478e-06 
4.950000e-01  8.807434755949708e-06 
5.000000e-01  8.750547391907180e-06 
5.050000e-01  8.510931308973370e-06 
5.100000e-01  7.920605790074990e-06 
5.150000e-01  7.344771660267206e-06 
5.200000e-01  6.766614785083295e-06 
5.250000e-01  6.188814919316475e-06 
5.300000e-01  5.610955136091499e-06 
5.350000e-01  5.033100889810587e-06 
5.400000e-01  4.455241787455419e-06 
5.450000e-01  3.877382373875264e-06 
5.500000e-01  3.299505053599186e-06 
5.550000e-01  2.721722530050446e-06 
5.600000e-01  2.143315655876775e-06 
5.650000e-01  1.568917552750322e-06 
5.700000e-01  9.699497675158967e-07 
5.750000e-01  6.382135237296289e-07 
5.800000e-01  5.618408549485359e-07 
5.850000e-01  5.362219400936256e-07 
5.900000e-01  5.241547904801812e-07 
5.950000e-01  5.173988695097021e-07 
6.000000e-01  5.134099808476579e-07 
6.050000e-01  5.113821802963505e-07 
6.100000e-01  5.115221028018865e-07 
6.150000e-01  5.158690183898099e-07 
6.200000e-01  5.348069964520927e-07 
6.250000e-01  6.262073732945850e-07 
6.300000e-01  7.893221336705261e-07 
6.350000e-01  9.457486746752434e-07 
6.400000e-01  1.103273439589394e-06 
6.450000e-01  1.260603923407239e-06 
6.500000e-01  1.418130116722013e-06 
6.550000e-01  1.574569392631791e-06 
6.600000e-01  1.737648679902167e-06 
6.650000e-01  1.833678667465979e-06 
6.700000e-01  1.856048222423749e-06 
6.750000e-01  1.863764630027365e-06 
6.800000e-01  1.867693666937929e-06 
6.850000e-01  1.870247333090496e-06 
6.900000e-01  1.872235399850899e-06 
6.950000e-01  1.874065182550880e-06 
7.000000e-01  1.876113539435520e-06 
7.050000e-01  1.879149820556021e-06 
7.100000e-01  1.886253674819074e-06 
7.150000e-01  1.914085794091664e-06 
7.200000e-01  1.965348262590788e-06 
7.250000e-01  2.014520189168419e-06 
7.300000e-01  2.064033777982418e-06 
7.350000e-01  2.113495361085970e-06 
7.400000e-01  2.162964548881065e-06 
7.450000e-01  2.212444096602130e-06 
7.500000e-01  2.261858502887672e-06 
7.550000e-01  2.311697009590987e-06 
7.600000e-01  2.358586693931614e-06 
7.650000e-01  2.369997231247189e-06 
7.700000e-01  2.369957048689483e-06 
7.750000e-01  2.367056809040349e-06 
7.800000e-01  2.362611598564863e-06 
7.850000e-01  2.356501511546788e-06 
7.900000e-01  2.347827736703621e-06 
7.950000e-01  2.334348279733824e-06 
8.000000e-01  2.309938079690286e-06 
8.050000e-01  2.252559190334832e-06 
8.100000e-01  2.048648591439904e-06 
8.150000e-01  1.303154605715489e-06 
8.200000e-01  4.788019582275377e-07 
8.250000e-01  -3.343467765572117e-07 
8.300000e-01  -1.149130925027456e-06 
8.350000e-01  -1.964465416886276e-06 
8.400000e-01  -2.774432567298221e-06 
8.450000e-01  -3.617536843143462e-06 
8.500000e-01  -4.039466895036521e-06 
8.550000e-01  -4.136820985372070e-06 
8.600000e-01  -4.169441757462761e-06 
8.650000e-01  -4.184097681222470e-06 
8.700000e-01  -4.191298772155497e-06 
8.750000e-01  -4.194117749310673e-06 
8.800000e-01  -4.193044882213097e-06 
8.850000e-01  -4.186358164302436e-06 
8.900000e-01  -4.166682147213257e-06 
8.950000e-01  -4.098281413478752e-06 
9.000000e-01  -3.788552052955291e-06 
9.050000e-01  -3.289630773959502e-06 
9.100000e-01  -2.810465818762495e-06 
9.150000e-01  -2.327943510472970e-06 
9.200000e-01  -1.846810817715977e-06 
9.250000e-01  -1.359971046384551e-06 
9.300000e-01  -9.121619235727422e-07 
9.350000e-01  -7.862824958481631e-07 
9.400000e-01  -7.511703575541148e-07 
9.450000e-01  -7.362833165335441e-07 
9.500000e-01  -7.280091239753653e-07 
9.550000e-01  -7.225864290423853e-07 
9.600000e-01  -7.186148494915039e-07 
9.650000e-01  -7.154612845714464e-07 
9.700000e-01  -7.128069614503622e-07 
9.750000e-01  -7.105279436259976e-07 
9.800000e-01  -7.089640054312134e-07 
9.850000e-01  -7.087678783012982e-07 
9.900000e-01  -7.087887108856092e-07 
9.950000e-01  -7.087878062122058e-07 
1.000000e+00  -7.087890478565662e-07 
