TITLE ="t=383.288398" 
VARIABLES = "x"                 "mu" 
ZONE I=201, ZONETYPE=Ordered, DATAPACKING=POINT
0.000000e+00  1.832597842852344e-05 
5.000000e-03  1.832391467884893e-05 
1.000000e-02  1.831871497601786e-05 
1.500000e-02  1.831219404465816e-05 
2.000000e-02  1.830452414941579e-05 
2.500000e-02  1.829517815614606e-05 
3.000000e-02  1.828303390467668e-05 
3.500000e-02  1.826578214748623e-05 
4.000000e-02  1.823796469175634e-05 
4.500000e-02  1.818336684126151e-05 
5.000000e-02  1.803333524721168e-05 
5.500000e-02  1.738206378150353e-05 
6.000000e-02  1.670904751074672e-05 
6.500000e-02  1.654620379587619e-05 
7.000000e-02  1.647948498579113e-05 
7.500000e-02  1.643810411336444e-05 
8.000000e-02  1.640437846835355e-05 
8.500000e-02  1.637054063755410e-05 
9.000000e-02  1.632958432319049e-05 
9.500000e-02  1.626878503516423e-05 
1.000000e-01  1.615035143619105e-05 
1.050000e-01  1.579954687129311e-05 
1.100000e-01  1.425616373984371e-05 
1.150000e-01  1.267942117101328e-05 
1.200000e-01  1.231636897852555e-05 
1.250000e-01  1.219038950642782e-05 
1.300000e-01  1.212214306051854e-05 
1.350000e-01  1.207255123655038e-05 
1.400000e-01  1.202769332085430e-05 
1.450000e-01  1.197844677774841e-05 
1.500000e-01  1.191218823569616e-05 
1.550000e-01  1.179698245808826e-05 
1.600000e-01  1.150265731134062e-05 
1.650000e-01  1.031428103960625e-05 
1.700000e-01  7.693247835577948e-06 
1.750000e-01  5.139514100426384e-06 
1.800000e-01  2.718046316183985e-06 
1.850000e-01  2.003329196632377e-06 
1.900000e-01  1.805153428576495e-06 
1.950000e-01  1.720134912065540e-06 
2.000000e-01  1.670948854945935e-06 
2.050000e-01  1.636199579272161e-06 
2.100000e-01  1.607284235720511e-06 
2.150000e-01  1.578770164363505e-06 
2.200000e-01  1.543639084074903e-06 
2.250000e-01  1.482192643492874e-06 
2.300000e-01  1.297880356177009e-06 
2.350000e-01  6.591739824406319e-07 
2.400000e-01  -4.140768317143100e-08 
2.450000e-01  -7.337734308955198e-07 
2.500000e-01  -1.422815848815922e-06 
2.550000e-01  -2.140647584966698e-06 
2.600000e-01  -2.515266278912340e-06 
2.650000e-01  -2.600212183197891e-06 
2.700000e-01  -2.627424810330499e-06 
2.750000e-01  -2.638661904392678e-06 
2.800000e-01  -2.643086471114174e-06 
2.850000e-01  -2.643164622772636e-06 
2.900000e-01  -2.638858024437099e-06 
2.950000e-01  -2.627540465363295e-06 
3.000000e-01  -2.599315593565766e-06 
3.050000e-01  -2.507518114834404e-06 
3.100000e-01  -2.098351369937600e-06 
3.150000e-01  -1.413863762566105e-06 
3.200000e-01  -7.571559700573199e-07 
3.250000e-01  -9.522860565763766e-08 
3.300000e-01  5.614361110428116e-07 
3.350000e-01  1.246137114555021e-06 
3.400000e-01  1.614886217430753e-06 
3.450000e-01  1.702789691270042e-06 
3.500000e-01  1.735092514434537e-06 
3.550000e-01  1.752848893612753e-06 
3.600000e-01  1.765557137825826e-06 
3.650000e-01  1.776720714050774e-06 
3.700000e-01  1.788606138213935e-06 
3.750000e-01  1.804294385395392e-06 
3.800000e-01  1.831823069835284e-06 
3.850000e-01  1.906355113481546e-06 
3.900000e-01  2.218088567650018e-06 
3.950000e-01  2.746901443256648e-06 
4.000000e-01  3.254176651935756e-06 
4.050000e-01  3.764969873741316e-06 
4.100000e-01  4.275220111310953e-06 
4.150000e-01  4.785557959257346e-06 
4.200000e-01  5.295885098996728e-06 
4.250000e-01  5.806215082880164e-06 
4.300000e-01  6.316557262052260e-06 
4.350000e-01  6.826836677493611e-06 
4.400000e-01  7.337535130768016e-06 
4.450000e-01  7.845553846328712e-06 
4.500000e-01  8.370164045213106e-06 
4.550000e-01  8.757786343350405e-06 
4.600000e-01  8.847287282354059e-06 
4.650000e-01  8.873053674754231e-06 
4.700000e-01  8.882971039286879e-06 
4.750000e-01  8.886693876169974e-06 
4.800000e-01  8.886739900125165e-06 
4.850000e-01  8.883328197124281e-06 
4.900000e-01  8.874766424646906e-06 
4.950000e-01  8.854791523988311e-06 
5.000000e-01  8.796667185967682e-06 
5.050000e-01  8.552401093364038e-06 
5.100000e-01  7.946949185005256e-06 
5.150000e-01  7.355912189673055e-06 
5.200000e-01  6.762566462889834e-06 
5.250000e-01  6.169575481993782e-06 
5.300000e-01  5.576524811980869e-06 
5.350000e-01  4.983479522132476e-06 
5.400000e-01  4.390429272040761e-06 
5.450000e-01  3.797378672970789e-06 
5.500000e-01  3.204309667872450e-06 
5.550000e-01  2.611337948128435e-06 
5.600000e-01  2.017725275965817e-06 
5.650000e-01  1.428227747576348e-06 
5.700000e-01  8.135089631494304e-07 
5.750000e-01  4.716282394140373e-07 
5.800000e-01  3.930250392613200e-07 
5.850000e-01  3.667595072317403e-07 
5.900000e-01  3.544631615296279e-07 
5.950000e-01  3.476554127997722e-07 
6.000000e-01  3.437345799981500e-07 
6.050000e-01  3.419068988255155e-07 
6.100000e-01  3.424704036989483e-07 
6.150000e-01  3.477854948816754e-07 
6.200000e-01  3.697031559943498e-07 
6.250000e-01  4.742009712870914e-07 
6.300000e-01  6.612195618577563e-07 
6.350000e-01  8.405675722952339e-07 
6.400000e-01  1.021174909755108e-06 
6.450000e-01  1.201559346186622e-06 
6.500000e-01  1.382168041935429e-06 
6.550000e-01  1.561530732996777e-06 
6.600000e-01  1.748504694033337e-06 
6.650000e-01  1.858628256298698e-06 
6.700000e-01  1.884175386531946e-06 
6.750000e-01  1.892887305028390e-06 
6.800000e-01  1.897231458464509e-06 
6.850000e-01  1.899962399687578e-06 
6.900000e-01  1.901983904226321e-06 
6.950000e-01  1.903711352007902e-06 
7.000000e-01  1.905452182767636e-06 
7.050000e-01  1.907705972678834e-06 
7.100000e-01  1.912307972432858e-06 
7.150000e-01  1.929012774092444e-06 
7.200000e-01  1.959406387394209e-06 
7.250000e-01  1.988559960885904e-06 
7.300000e-01  2.017916332023826e-06 
7.350000e-01  2.047242063377362e-06 
7.400000e-01  2.076572553997954e-06 
7.450000e-01  2.105910160651240e-06 
7.500000e-01  2.135206358026772e-06 
7.550000e-01  2.164775023691176e-06 
7.600000e-01  2.192411364018362e-06 
7.650000e-01  2.198032372848081e-06 
7.700000e-01  2.196379346313368e-06 
7.750000e-01  2.192772930930693e-06 
7.800000e-01  2.187901871567163e-06 
7.850000e-01  2.181470274745487e-06 
7.900000e-01  2.172501730657613e-06 
7.950000e-01  2.158690192971416e-06 
8.000000e-01  2.133794468578546e-06 
8.050000e-01  2.075377638773078e-06 
8.100000e-01  1.867776478640193e-06 
8.150000e-01  1.111239631057660e-06 
8.200000e-01  2.763515976494377e-07 
8.250000e-01  -5.473851624350261e-07 
8.300000e-01  -1.372747559538098e-06 
8.350000e-01  -2.198666364745140e-06 
8.400000e-01  -3.019186065879811e-06 
8.450000e-01  -3.873046462994324e-06 
8.500000e-01  -4.297040444549115e-06 
8.550000e-01  -4.394923027211404e-06 
8.600000e-01  -4.427729825461082e-06 
8.650000e-01  -4.442425222785997e-06 
8.700000e-01  -4.449576394506230e-06 
8.750000e-01  -4.452261223027978e-06 
8.800000e-01  -4.450934926344021e-06 
8.850000e-01  -4.443761504694932e-06 
8.900000e-01  -4.422974470585584e-06 
8.950000e-01  -4.350946899862380e-06 
9.000000e-01  -4.025385038296314e-06 
9.050000e-01  -3.504642858907277e-06 
9.100000e-01  -3.004423169137149e-06 
9.150000e-01  -2.500714485005161e-06 
9.200000e-01  -1.998464800322165e-06 
9.250000e-01  -1.490190287828572e-06 
9.300000e-01  -1.023167885792184e-06 
9.350000e-01  -8.921238372762953e-07 
9.400000e-01  -8.555420201686694e-07 
9.450000e-01  -8.400210380088390e-07 
9.500000e-01  -8.313908738477915e-07 
9.550000e-01  -8.257332620041284e-07 
9.600000e-01  -8.215886998668629e-07 
9.650000e-01  -8.182971217343154e-07 
9.700000e-01  -8.155260696960910e-07 
9.750000e-01  -8.131463416513441e-07 
9.800000e-01  -8.115143340331964e-07 
9.850000e-01  -8.113114436791423e-07 
9.900000e-01  -8.113331574133359e-07 
9.950000e-01  -8.113322224328202e-07 
1.000000e+00  -8.113335166075953e-07 
