TITLE ="t=363.288398" 
VARIABLES = "x"                 "mu" 
ZONE I=201, ZONETYPE=Ordered, DATAPACKING=POINT
0.000000e+00  1.890384369258078e-05 
5.000000e-03  1.890157018584899e-05 
1.000000e-02  1.889578212950564e-05 
1.500000e-02  1.888850816305411e-05 
2.000000e-02  1.887995142279727e-05 
2.500000e-02  1.886952711145757e-05 
3.000000e-02  1.885598689334096e-05 
3.500000e-02  1.883676274194037e-05 
4.000000e-02  1.880579067394818e-05 
4.500000e-02  1.874508437452677e-05 
5.000000e-02  1.857866344981245e-05 
5.500000e-02  1.785772523683121e-05 
6.000000e-02  1.711010925995335e-05 
6.500000e-02  1.692920478075163e-05 
7.000000e-02  1.685520253621866e-05 
7.500000e-02  1.680945865075110e-05 
8.000000e-02  1.677232932076357e-05 
8.500000e-02  1.673522443696068e-05 
9.000000e-02  1.669046353383691e-05 
9.500000e-02  1.662417368912196e-05 
1.000000e-01  1.649519003160732e-05 
1.050000e-01  1.611304773479146e-05 
1.100000e-01  1.443315163311889e-05 
1.150000e-01  1.272292526353273e-05 
1.200000e-01  1.233010858189391e-05 
1.250000e-01  1.219492876136529e-05 
1.300000e-01  1.212266684601891e-05 
1.350000e-01  1.207103444945038e-05 
1.400000e-01  1.202518787270520e-05 
1.450000e-01  1.197576727500510e-05 
1.500000e-01  1.191034893813808e-05 
1.550000e-01  1.179806597808645e-05 
1.600000e-01  1.151368613883378e-05 
1.650000e-01  1.037005949127805e-05 
1.700000e-01  7.846626452897375e-06 
1.750000e-01  5.388856128731722e-06 
1.800000e-01  3.050931284607363e-06 
1.850000e-01  2.355719813129735e-06 
1.900000e-01  2.162958156203814e-06 
1.950000e-01  2.079992403897653e-06 
2.000000e-01  2.031607854148575e-06 
2.050000e-01  1.996968490592103e-06 
2.100000e-01  1.967575030546902e-06 
2.150000e-01  1.937799939028618e-06 
2.200000e-01  1.899868284236253e-06 
2.250000e-01  1.831227201288668e-06 
2.300000e-01  1.620567976319849e-06 
2.350000e-01  8.810755035133482e-07 
2.400000e-01  6.652228436787323e-08 
2.450000e-01  -7.380748780998976e-07 
2.500000e-01  -1.538897958184722e-06 
2.550000e-01  -2.373021903673182e-06 
2.600000e-01  -2.804758403381337e-06 
2.650000e-01  -2.902966075091909e-06 
2.700000e-01  -2.934697190324903e-06 
2.750000e-01  -2.948019888928699e-06 
2.800000e-01  -2.953529052257517e-06 
2.850000e-01  -2.954120812960069e-06 
2.900000e-01  -2.949847322022323e-06 
2.950000e-01  -2.937902847504263e-06 
3.000000e-01  -2.907548434223831e-06 
3.050000e-01  -2.807933993265686e-06 
3.100000e-01  -2.362975229975930e-06 
3.150000e-01  -1.624293358927947e-06 
3.200000e-01  -9.154845662919694e-07 
3.250000e-01  -2.010615265178671e-07 
3.300000e-01  5.076856138473955e-07 
3.350000e-01  1.246681728613630e-06 
3.400000e-01  1.644145454843181e-06 
3.450000e-01  1.738750946862040e-06 
3.500000e-01  1.773384801551527e-06 
3.550000e-01  1.792297976715204e-06 
3.600000e-01  1.805712642618052e-06 
3.650000e-01  1.817368960733013e-06 
3.700000e-01  1.829632189767533e-06 
3.750000e-01  1.845632312752501e-06 
3.800000e-01  1.873436735900591e-06 
3.850000e-01  1.948246375186316e-06 
3.900000e-01  2.260339391921889e-06 
3.950000e-01  2.789027346255510e-06 
4.000000e-01  3.296189839051457e-06 
4.050000e-01  3.806868120622934e-06 
4.100000e-01  4.317003640935154e-06 
4.150000e-01  4.827226638513964e-06 
4.200000e-01  5.337438868435337e-06 
4.250000e-01  5.847653910683058e-06 
4.300000e-01  6.357881015989349e-06 
4.350000e-01  6.868046010790237e-06 
4.400000e-01  7.378625806802497e-06 
4.450000e-01  7.886553339966506e-06 
4.500000e-01  8.410907838978313e-06 
4.550000e-01  8.800096097871206e-06 
4.600000e-01  8.890050383178882e-06 
4.650000e-01  8.915852711690190e-06 
4.700000e-01  8.925719207018568e-06 
4.750000e-01  8.929354431773267e-06 
4.800000e-01  8.929277838829941e-06 
4.850000e-01  8.925690598941184e-06 
4.900000e-01  8.916852655846433e-06 
4.950000e-01  8.896366502821387e-06 
5.000000e-01  8.836994661309610e-06 
5.050000e-01  8.588080018128860e-06 
5.100000e-01  7.967306762815735e-06 
5.150000e-01  7.360835669221886e-06 
5.200000e-01  6.752075691236644e-06 
5.250000e-01  6.143667285429186e-06 
5.300000e-01  5.535199557746787e-06 
5.350000e-01  4.926737028610499e-06 
5.400000e-01  4.318269435844125e-06 
5.450000e-01  3.709801454025567e-06 
5.500000e-01  3.101314560505650e-06 
5.550000e-01  2.492927465311935e-06 
5.600000e-01  1.883882644576922e-06 
5.650000e-01  1.279060426751274e-06 
5.700000e-01  6.483586299693442e-07 
5.750000e-01  2.960509180317832e-07 
5.800000e-01  2.151624704349113e-07 
5.850000e-01  1.882432515237502e-07 
5.900000e-01  1.757227109583511e-07 
5.950000e-01  1.688743456116276e-07 
6.000000e-01  1.650389824795156e-07 
6.050000e-01  1.634382810591131e-07 
6.100000e-01  1.644708404842880e-07 
6.150000e-01  1.708467608916042e-07 
6.200000e-01  1.960088055507080e-07 
6.250000e-01  3.147376896149059e-07 
6.300000e-01  5.279231776728257e-07 
6.350000e-01  7.323631516936035e-07 
6.400000e-01  9.382387429058067e-07 
6.450000e-01  1.143860132891421e-06 
6.500000e-01  1.349737018584428e-06 
6.550000e-01  1.554193950816706e-06 
6.600000e-01  1.767324294721289e-06 
6.650000e-01  1.892924220373743e-06 
6.700000e-01  1.921964369291429e-06 
6.750000e-01  1.931773632273764e-06 
6.800000e-01  1.936579152705226e-06 
6.850000e-01  1.939512032581708e-06 
6.900000e-01  1.941580182373409e-06 
6.950000e-01  1.943209891758118e-06 
7.000000e-01  1.944637464967300e-06 
7.050000e-01  1.946082052705058e-06 
7.100000e-01  1.948083179742281e-06 
7.150000e-01  1.953200815874096e-06 
7.200000e-01  1.961823520496143e-06 
7.250000e-01  1.970092991043228e-06 
7.300000e-01  1.978420459056396e-06 
7.350000e-01  1.986739546306412e-06 
7.400000e-01  1.995060449419216e-06 
7.450000e-01  2.003384842492479e-06 
7.500000e-01  2.011694042642037e-06 
7.550000e-01  2.020108251398628e-06 
7.600000e-01  2.027716519186786e-06 
7.650000e-01  2.027358127197121e-06 
7.700000e-01  2.024034834638923e-06 
7.750000e-01  2.019695579534037e-06 
7.800000e-01  2.014382340024045e-06 
7.850000e-01  2.007617063985788e-06 
7.900000e-01  1.998342998425707e-06 
7.950000e-01  1.984187957921205e-06 
8.000000e-01  1.958791219280802e-06 
8.050000e-01  1.899305778523591e-06 
8.100000e-01  1.687910828770202e-06 
8.150000e-01  9.200281747077726e-07 
8.200000e-01  7.428258221110374e-08 
8.250000e-01  -7.603621548812627e-07 
8.300000e-01  -1.596623179645891e-06 
8.350000e-01  -2.433446174047018e-06 
8.400000e-01  -3.264841207303552e-06 
8.450000e-01  -4.129763906435903e-06 
8.500000e-01  -4.555834425202301e-06 
8.550000e-01  -4.654258085383841e-06 
8.600000e-01  -4.687259869046121e-06 
8.650000e-01  -4.702001426291796e-06 
8.700000e-01  -4.709108418461212e-06 
8.750000e-01  -4.711664724863262e-06 
8.800000e-01  -4.710091235872633e-06 
8.850000e-01  -4.702438852810427e-06 
8.900000e-01  -4.680550957349269e-06 
8.950000e-01  -4.604904890351747e-06 
9.000000e-01  -4.263565941921806e-06 
9.050000e-01  -3.721472676087795e-06 
9.100000e-01  -3.200633697618257e-06 
9.150000e-01  -2.676179716009154e-06 
9.200000e-01  -2.153253829404108e-06 
9.250000e-01  -1.623981940406793e-06 
9.300000e-01  -1.138214325584934e-06 
9.350000e-01  -1.002164881666831e-06 
9.400000e-01  -9.641542998249033e-07 
9.450000e-01  -9.480154183191330e-07 
9.500000e-01  -9.390377550631090e-07 
9.550000e-01  -9.331505789420193e-07 
9.600000e-01  -9.288368391514669e-07 
9.650000e-01  -9.254101867548568e-07 
9.700000e-01  -9.225248083392952e-07 
9.750000e-01  -9.200463700293662e-07 
9.800000e-01  -9.183477942219274e-07 
9.850000e-01  -9.181385401613816e-07 
9.900000e-01  -9.181611105023448e-07 
9.950000e-01  -9.181601468599585e-07 
1.000000e+00  -9.181614920276487e-07 
