TITLE ="t=483.288398" 
VARIABLES = "x"                 "mu" 
ZONE I=201, ZONETYPE=Ordered, DATAPACKING=POINT
0.000000e+00  1.602084290200033e-05 
5.000000e-03  1.601940753011434e-05 
1.000000e-02  1.601592625294640e-05 
1.500000e-02  1.601159420209926e-05 
2.000000e-02  1.600650175985163e-05 
2.500000e-02  1.600029155761506e-05 
3.000000e-02  1.599221052050605e-05 
3.500000e-02  1.598070698926286e-05 
4.000000e-02  1.596210005658512e-05 
4.500000e-02  1.592539042153615e-05 
5.000000e-02  1.582360620574727e-05 
5.500000e-02  1.537852124966689e-05 
6.000000e-02  1.492231180799798e-05 
6.500000e-02  1.481175036151004e-05 
7.000000e-02  1.476599874936337e-05 
7.500000e-02  1.473708130056723e-05 
8.000000e-02  1.471299189192333e-05 
8.500000e-02  1.468831955554447e-05 
9.000000e-02  1.465794981805592e-05 
9.500000e-02  1.461233367972583e-05 
1.000000e-01  1.452297924143655e-05 
1.050000e-01  1.425858183813763e-05 
1.100000e-01  1.309024225177474e-05 
1.150000e-01  1.189612936072412e-05 
1.200000e-01  1.161814792942089e-05 
1.250000e-01  1.151719151957816e-05 
1.300000e-01  1.145891539472549e-05 
1.350000e-01  1.141340981670036e-05 
1.400000e-01  1.136918215652442e-05 
1.450000e-01  1.131735237271468e-05 
1.500000e-01  1.124368397855483e-05 
1.550000e-01  1.110995308082251e-05 
1.600000e-01  1.075718644549790e-05 
1.650000e-01  9.309144705352808e-06 
1.700000e-01  6.190791759082520e-06 
1.750000e-01  3.148582290513181e-06 
1.800000e-01  3.304033926730684e-07 
1.850000e-01  -4.630260552117486e-07 
1.900000e-01  -6.845347719559402e-07 
1.950000e-01  -7.787274668749981e-07 
2.000000e-01  -8.314061081035390e-07 
2.050000e-01  -8.663214351133803e-07 
2.100000e-01  -8.924219056920841e-07 
2.150000e-01  -9.139928120857997e-07 
2.200000e-01  -9.338587240747677e-07 
2.250000e-01  -9.558002891358013e-07 
2.300000e-01  -9.933556955621988e-07 
2.350000e-01  -1.091006074257958e-06 
2.400000e-01  -1.194258965674487e-06 
2.450000e-01  -1.296735083415014e-06 
2.500000e-01  -1.398645875838122e-06 
2.550000e-01  -1.504871435199144e-06 
2.600000e-01  -1.560973780012363e-06 
2.650000e-01  -1.572121298123097e-06 
2.700000e-01  -1.574194092680907e-06 
2.750000e-01  -1.573529258016310e-06 
2.800000e-01  -1.571323575837462e-06 
2.850000e-01  -1.567576686732676e-06 
2.900000e-01  -1.561512702800176e-06 
2.950000e-01  -1.550864345073982e-06 
3.000000e-01  -1.528309888273491e-06 
3.050000e-01  -1.460409968808214e-06 
3.100000e-01  -1.164868792897416e-06 
3.150000e-01  -6.583561473997411e-07 
3.200000e-01  -1.725909677048958e-07 
3.250000e-01  3.170692742006525e-07 
3.300000e-01  8.028300025843997e-07 
3.350000e-01  1.309344079975725e-06 
3.400000e-01  1.582929909074518e-06 
3.450000e-01  1.648590087320645e-06 
3.500000e-01  1.673122674876567e-06 
3.550000e-01  1.686976708710665e-06 
3.600000e-01  1.697248330955493e-06 
3.650000e-01  1.706645040383291e-06 
3.700000e-01  1.717078061720712e-06 
3.750000e-01  1.731395262364506e-06 
3.800000e-01  1.757315106478431e-06 
3.850000e-01  1.828886910962157e-06 
3.900000e-01  2.130606222832566e-06 
3.950000e-01  2.643916352438923e-06 
4.000000e-01  3.136308058490594e-06 
4.050000e-01  3.632117108951248e-06 
4.100000e-01  4.127398932926891e-06 
4.150000e-01  4.622765966964397e-06 
4.200000e-01  5.118122664852712e-06 
4.250000e-01  5.613482046097556e-06 
4.300000e-01  6.108853657858645e-06 
4.350000e-01  6.604161261504425e-06 
4.400000e-01  7.099894309148152e-06 
4.450000e-01  7.592903739930826e-06 
4.500000e-01  8.102748463525893e-06 
4.550000e-01  8.471207190584772e-06 
4.600000e-01  8.555874532939083e-06 
4.650000e-01  8.580625032011073e-06 
4.700000e-01  8.590391221313453e-06 
4.750000e-01  8.594302092376887e-06 
4.800000e-01  8.594779967010333e-06 
4.850000e-01  8.592096692280684e-06 
4.900000e-01  8.584777773858542e-06 
4.950000e-01  8.567217784455727e-06 
5.000000e-01  8.515198881323320e-06 
5.050000e-01  8.294252332096551e-06 
5.100000e-01  7.762613496337522e-06 
5.150000e-01  7.245444851589464e-06 
5.200000e-01  6.725950326726886e-06 
5.250000e-01  6.206813620992021e-06 
5.300000e-01  5.687617347788634e-06 
5.350000e-01  5.168427017443808e-06 
5.400000e-01  4.649232258160532e-06 
5.450000e-01  4.130037321849994e-06 
5.500000e-01  3.610826414645996e-06 
5.550000e-01  3.091700616465631e-06 
5.600000e-01  2.572015044200893e-06 
5.650000e-01  2.055924414048791e-06 
5.700000e-01  1.517798469256343e-06 
5.750000e-01  1.224133911854699e-06 
5.800000e-01  1.156200105013263e-06 
5.850000e-01  1.133104018367445e-06 
5.900000e-01  1.121997181139998e-06 
5.950000e-01  1.115547556301182e-06 
6.000000e-01  1.111440924220321e-06 
6.050000e-01  1.108851754606446e-06 
6.100000e-01  1.107703649345017e-06 
6.150000e-01  1.109010202775864e-06 
6.200000e-01  1.118428582275694e-06 
6.250000e-01  1.167752241918191e-06 
6.300000e-01  1.255262367127001e-06 
6.350000e-01  1.339190540884374e-06 
6.400000e-01  1.423707570263824e-06 
6.450000e-01  1.508120915018014e-06 
6.500000e-01  1.592639619370412e-06 
6.550000e-01  1.676575533080548e-06 
6.600000e-01  1.764074518400228e-06 
6.650000e-01  1.815764288852224e-06 
6.700000e-01  1.828169596738203e-06 
6.750000e-01  1.832793802680399e-06 
6.800000e-01  1.835466881035562e-06 
6.850000e-01  1.837526598539483e-06 
6.900000e-01  1.839494930004506e-06 
6.950000e-01  1.841771188082472e-06 
7.000000e-01  1.844993153967417e-06 
7.050000e-01  1.850909973889683e-06 
7.100000e-01  1.867098289706613e-06 
7.150000e-01  1.935153187278392e-06 
7.200000e-01  2.061771679472178e-06 
7.250000e-01  2.183227897691478e-06 
7.300000e-01  2.305527213373567e-06 
7.350000e-01  2.427697204270132e-06 
7.400000e-01  2.549885295062900e-06 
7.450000e-01  2.672093308706040e-06 
7.500000e-01  2.794163540091706e-06 
7.550000e-01  2.917122367161248e-06 
7.600000e-01  3.034047275444266e-06 
7.650000e-01  3.066921859302437e-06 
7.700000e-01  3.072813680815841e-06 
7.750000e-01  3.072491995086494e-06 
7.800000e-01  3.069595198048003e-06 
7.850000e-01  3.064651328585644e-06 
7.900000e-01  3.057045706973310e-06 
7.950000e-01  3.044770139119184e-06 
8.000000e-01  3.022123714715920e-06 
8.050000e-01  2.968528894245327e-06 
8.100000e-01  2.778123481463113e-06 
8.150000e-01  2.072912691819563e-06 
8.200000e-01  1.286515261838755e-06 
8.250000e-01  5.115691729097530e-07 
8.300000e-01  -2.650576641039043e-07 
8.350000e-01  -1.042207443967803e-06 
8.400000e-01  -1.814131301999598e-06 
8.450000e-01  -2.618300973918835e-06 
8.500000e-01  -3.032702533613080e-06 
8.550000e-01  -3.128197711326609e-06 
8.600000e-01  -3.160202828523962e-06 
8.650000e-01  -3.174781942569432e-06 
8.700000e-01  -3.182243690179555e-06 
8.750000e-01  -3.185651936929103e-06 
8.800000e-01  -3.185643766748547e-06 
8.850000e-01  -3.180956876761755e-06 
8.900000e-01  -3.165770959002248e-06 
8.950000e-01  -3.111792148361101e-06 
9.000000e-01  -2.865121802487272e-06 
9.050000e-01  -2.456799426845899e-06 
9.100000e-01  -2.064897905691866e-06 
9.150000e-01  -1.670209695094495e-06 
9.200000e-01  -1.276634264651908e-06 
9.250000e-01  -8.785772332087856e-07 
9.300000e-01  -5.110411899334210e-07 
9.350000e-01  -4.070541789341731e-07 
9.400000e-01  -3.781308351769643e-07 
9.450000e-01  -3.658983202646974e-07 
9.500000e-01  -3.591097259361227e-07 
9.550000e-01  -3.546652121773253e-07 
9.600000e-01  -3.514126597570926e-07 
9.650000e-01  -3.488318729597150e-07 
9.700000e-01  -3.466612290846957e-07 
9.750000e-01  -3.447988503341962e-07 
9.800000e-01  -3.435179014609417e-07 
9.850000e-01  -3.433522385376497e-07 
9.900000e-01  -3.433693646318200e-07 
9.950000e-01  -3.433685957730729e-07 
1.000000e+00  -3.433696159262822e-07 
