TITLE ="t=463.288398" 
VARIABLES = "x"                 "mu" 
ZONE I=201, ZONETYPE=Ordered, DATAPACKING=POINT
0.000000e+00  1.642399382741634e-05 
5.000000e-03  1.642248126072049e-05 
1.000000e-02  1.641878946557378e-05 
1.500000e-02  1.641418944579138e-05 
2.000000e-02  1.640878142735527e-05 
2.500000e-02  1.640218722087763e-05 
3.000000e-02  1.639360851995631e-05 
3.500000e-02  1.638140080871169e-05 
4.000000e-02  1.636166529546430e-05 
4.500000e-02  1.632276315756983e-05 
5.000000e-02  1.621506302004899e-05 
5.500000e-02  1.574466981084055e-05 
6.000000e-02  1.526218631821660e-05 
6.500000e-02  1.514531239011036e-05 
7.000000e-02  1.509705188965682e-05 
7.500000e-02  1.506666708561451e-05 
8.000000e-02  1.504146644356125e-05 
8.500000e-02  1.501576038288840e-05 
9.000000e-02  1.498422094946599e-05 
9.500000e-02  1.493695326070806e-05 
1.000000e-01  1.484445829130348e-05 
1.050000e-01  1.457069721808708e-05 
1.100000e-01  1.336206700838250e-05 
1.150000e-01  1.212459814893827e-05 
1.200000e-01  1.183705673728000e-05 
1.250000e-01  1.173354180700195e-05 
1.300000e-01  1.167445179500695e-05 
1.350000e-01  1.162884803221653e-05 
1.400000e-01  1.158500845534678e-05 
1.450000e-01  1.153411776403360e-05 
1.500000e-01  1.146234264300587e-05 
1.550000e-01  1.133285721667608e-05 
1.600000e-01  1.099307244533121e-05 
1.650000e-01  9.602416261950196e-06 
1.700000e-01  6.586193162686446e-06 
1.750000e-01  3.644386212793158e-06 
1.800000e-01  9.034278001519166e-07 
1.850000e-01  1.234499199596761e-07 
1.900000e-01  -9.382079468793976e-08 
1.950000e-01  -1.862907350121128e-07 
2.000000e-01  -2.383194935989406e-07 
2.050000e-01  -2.732394312788477e-07 
2.100000e-01  -2.999509614114614e-07 
2.150000e-01  -3.229930702545732e-07 
2.200000e-01  -3.460921616006722e-07 
2.250000e-01  -3.764778793800425e-07 
2.300000e-01  -4.458040343574226e-07 
2.350000e-01  -6.569609938562395e-07 
2.400000e-01  -8.831624380299632e-07 
2.450000e-01  -1.107340710070753e-06 
2.500000e-01  -1.330330524208455e-06 
2.550000e-01  -1.562743899953450e-06 
2.600000e-01  -1.686355278931858e-06 
2.650000e-01  -1.713141706013885e-06 
2.700000e-01  -1.720548970704501e-06 
2.750000e-01  -1.722444952005536e-06 
2.800000e-01  -1.721714402510096e-06 
2.850000e-01  -1.718888129088853e-06 
2.900000e-01  -1.713372341597875e-06 
2.950000e-01  -1.702893257571064e-06 
3.000000e-01  -1.679811047085245e-06 
3.050000e-01  -1.608955894471176e-06 
3.100000e-01  -1.298544365539252e-06 
3.150000e-01  -7.681283146088546e-07 
3.200000e-01  -2.594167022509933e-07 
3.250000e-01  2.533701765999912e-07 
3.300000e-01  7.620739966618298e-07 
3.350000e-01  1.292510812637581e-06 
3.400000e-01  1.578960749085714e-06 
3.450000e-01  1.647635395407395e-06 
3.500000e-01  1.673228447986150e-06 
3.550000e-01  1.687623347011380e-06 
3.600000e-01  1.698241771149622e-06 
3.650000e-01  1.707900985262942e-06 
3.700000e-01  1.718565139523946e-06 
3.750000e-01  1.733125753887916e-06 
3.800000e-01  1.759382235440133e-06 
3.850000e-01  1.831704351463515e-06 
3.900000e-01  2.136291058530161e-06 
3.950000e-01  2.654390233004568e-06 
4.000000e-01  3.151376186441755e-06 
4.050000e-01  3.651811280544973e-06 
4.100000e-01  4.151714240459193e-06 
4.150000e-01  4.651703213091821e-06 
4.200000e-01  5.151681769666712e-06 
4.250000e-01  5.651663076199379e-06 
4.300000e-01  6.151656675658554e-06 
4.350000e-01  6.651586284671324e-06 
4.400000e-01  7.151941729337002e-06 
4.450000e-01  7.649571727093051e-06 
4.500000e-01  8.164053743310377e-06 
4.550000e-01  8.537485911678644e-06 
4.600000e-01  8.623373725626335e-06 
4.650000e-01  8.648411988572925e-06 
4.700000e-01  8.658250187096638e-06 
4.750000e-01  8.662149591785066e-06 
4.800000e-01  8.662560326327886e-06 
4.850000e-01  8.659747464452469e-06 
4.900000e-01  8.652195129279694e-06 
4.950000e-01  8.634167886673136e-06 
5.000000e-01  8.580941793509194e-06 
5.050000e-01  8.355314370888217e-06 
5.100000e-01  7.809267997712363e-06 
5.150000e-01  7.277742531961047e-06 
5.200000e-01  6.743884591662550e-06 
5.250000e-01  6.210385416430950e-06 
5.300000e-01  5.676826409954991e-06 
5.350000e-01  5.143273275465575e-06 
5.400000e-01  4.609715603635555e-06 
5.450000e-01  4.076157723309175e-06 
5.500000e-01  3.542583397346903e-06 
5.550000e-01  3.009096560287505e-06 
5.600000e-01  2.475034090673225e-06 
5.650000e-01  1.944668197099298e-06 
5.700000e-01  1.391644604387798e-06 
5.750000e-01  1.088810921266521e-06 
5.800000e-01  1.018834600396937e-06 
5.850000e-01  9.951169140414582e-07 
5.900000e-01  9.837641903507842e-07 
5.950000e-01  9.772244541382901e-07 
6.000000e-01  9.731260027157904e-07 
6.050000e-01  9.706441629519559e-07 
6.100000e-01  9.697618005970464e-07 
6.150000e-01  9.717127494744786e-07 
6.200000e-01  9.831756152940419e-07 
6.250000e-01  1.041573376987518e-06 
6.300000e-01  1.145230777552706e-06 
6.350000e-01  1.244643227624068e-06 
6.400000e-01  1.344753245211998e-06 
6.450000e-01  1.444740228482703e-06 
6.500000e-01  1.544851870132248e-06 
6.550000e-01  1.644272948805252e-06 
6.600000e-01  1.747914779137696e-06 
6.650000e-01  1.809049042846603e-06 
6.700000e-01  1.823570989821854e-06 
6.750000e-01  1.828846655886292e-06 
6.800000e-01  1.831778433930609e-06 
6.850000e-01  1.833932290552561e-06 
6.900000e-01  1.835890122084936e-06 
6.950000e-01  1.838049984761280e-06 
7.000000e-01  1.840986882350363e-06 
7.050000e-01  1.846219163288065e-06 
7.100000e-01  1.860267887025823e-06 
7.150000e-01  1.918877873504858e-06 
7.200000e-01  2.027789437833183e-06 
7.250000e-01  2.132260311367457e-06 
7.300000e-01  2.237456506868464e-06 
7.350000e-01  2.342541562647220e-06 
7.400000e-01  2.447642218455626e-06 
7.450000e-01  2.552760879817562e-06 
7.500000e-01  2.657756817719269e-06 
7.550000e-01  2.763544995957068e-06 
7.600000e-01  2.863934535243560e-06 
7.650000e-01  2.891677620190429e-06 
7.700000e-01  2.896159061913996e-06 
7.750000e-01  2.895227648090614e-06 
7.800000e-01  2.891966130618704e-06 
7.850000e-01  2.886748411035410e-06 
7.900000e-01  2.878892587172045e-06 
7.950000e-01  2.866335486165507e-06 
8.000000e-01  2.843276724648203e-06 
8.050000e-01  2.788795913926906e-06 
8.100000e-01  2.595220582821210e-06 
8.150000e-01  1.880593052284665e-06 
8.200000e-01  1.085416110150731e-06 
8.250000e-01  3.016216821111951e-07 
8.300000e-01  -4.838410304596467e-07 
8.350000e-01  -1.269833840961395e-06 
8.400000e-01  -2.050564534949388e-06 
8.450000e-01  -2.863767474039760e-06 
8.500000e-01  -3.279887444930385e-06 
8.550000e-01  -3.375797480172442e-06 
8.600000e-01  -3.407933814554567e-06 
8.650000e-01  -3.422518730130985e-06 
8.700000e-01  -3.429905861406583e-06 
8.750000e-01  -3.433159206291335e-06 
8.800000e-01  -3.432878201384397e-06 
8.850000e-01  -3.427685492351102e-06 
8.900000e-01  -3.411374828288629e-06 
8.950000e-01  -3.353817246858998e-06 
9.000000e-01  -3.091491360857649e-06 
9.050000e-01  -2.660144037447034e-06 
9.100000e-01  -2.246085284962151e-06 
9.150000e-01  -1.829091695327783e-06 
9.200000e-01  -1.413279695480096e-06 
9.250000e-01  -9.926873559148466e-07 
9.300000e-01  -6.046823273550441e-07 
9.350000e-01  -4.950696824156064e-07 
9.400000e-01  -4.645615517829823e-07 
9.450000e-01  -4.516513143107600e-07 
9.500000e-01  -4.444841106312646e-07 
9.550000e-01  -4.397906054350375e-07 
9.600000e-01  -4.363552000801267e-07 
9.650000e-01  -4.336288741643281e-07 
9.700000e-01  -4.313354348632511e-07 
9.750000e-01  -4.293673708536954e-07 
9.800000e-01  -4.280144482685957e-07 
9.850000e-01  -4.278407141619697e-07 
9.900000e-01  -4.278587884666575e-07 
9.950000e-01  -4.278579836553662e-07 
1.000000e+00  -4.278590605277578e-07 
