TITLE ="t=43.288398" 
VARIABLES = "x"                 "mu" 
ZONE I=201, ZONETYPE=Ordered, DATAPACKING=POINT
0.000000e+00  -8.864579285131137e-06 
5.000000e-03  -8.857741758644927e-06 
1.000000e-02  -8.836801574313305e-06 
1.500000e-02  -8.809448262425027e-06 
2.000000e-02  -8.777197728651948e-06 
2.500000e-02  -8.738083047706919e-06 
3.000000e-02  -8.687658687809252e-06 
3.500000e-02  -8.616830530463827e-06 
4.000000e-02  -8.504504412742478e-06 
4.500000e-02  -8.289959585498601e-06 
5.000000e-02  -7.729854258931722e-06 
5.500000e-02  -5.606897959083105e-06 
6.000000e-02  -4.086135309788227e-06 
6.500000e-02  -3.687410829772767e-06 
7.000000e-02  -3.540078219184192e-06 
7.500000e-02  -3.477808773542251e-06 
8.000000e-02  -3.458491733189435e-06 
8.500000e-02  -3.472281293770113e-06 
9.000000e-02  -3.526965426589792e-06 
9.500000e-02  -3.659739950826049e-06 
1.000000e-01  -4.016369951786179e-06 
1.050000e-01  -5.358328377576663e-06 
1.100000e-01  -1.037319124834354e-05 
1.150000e-01  -1.247472417747794e-05 
1.200000e-01  -1.298382443444958e-05 
1.250000e-01  -1.316806480321817e-05 
1.300000e-01  -1.325469170299361e-05 
1.350000e-01  -1.329858997023968e-05 
1.400000e-01  -1.331625204694622e-05 
1.450000e-01  -1.330948420315368e-05 
1.500000e-01  -1.326548509202262e-05 
1.550000e-01  -1.312945372742110e-05 
1.600000e-01  -1.262267218364952e-05 
1.650000e-01  -1.043081355671702e-05 
1.700000e-01  -7.583099482395111e-06 
1.750000e-01  -4.783233469044221e-06 
1.800000e-01  -2.211449615827653e-06 
1.850000e-01  -1.499976544108571e-06 
1.900000e-01  -1.305685795493303e-06 
1.950000e-01  -1.227654701776972e-06 
2.000000e-01  -1.188845539135026e-06 
2.050000e-01  -1.168689454932673e-06 
2.100000e-01  -1.160969954829277e-06 
2.150000e-01  -1.166061263025858e-06 
2.200000e-01  -1.192992558959430e-06 
2.250000e-01  -1.280926745568802e-06 
2.300000e-01  -1.640262781618248e-06 
2.350000e-01  -2.902229553652832e-06 
2.400000e-01  -4.248094666611160e-06 
2.450000e-01  -5.582405325451375e-06 
2.500000e-01  -6.913817404871188e-06 
2.550000e-01  -8.275068822697503e-06 
2.600000e-01  -8.814637972378511e-06 
2.650000e-01  -8.939769913169929e-06 
2.700000e-01  -8.979497013942575e-06 
2.750000e-01  -8.992952446458085e-06 
2.800000e-01  -8.993558205004870e-06 
2.850000e-01  -8.984083581555203e-06 
2.900000e-01  -8.961903055121422e-06 
2.950000e-01  -8.915973010738669e-06 
3.000000e-01  -8.806713046558837e-06 
3.050000e-01  -8.439446332115744e-06 
3.100000e-01  -6.869321210453995e-06 
3.150000e-01  -4.765707304248646e-06 
3.200000e-01  -2.727651554942051e-06 
3.250000e-01  -6.770546004967596e-07 
3.300000e-01  1.358577775625073e-06 
3.350000e-01  3.476008754516558e-06 
3.400000e-01  4.515785496440233e-06 
3.450000e-01  4.762453508605236e-06 
3.500000e-01  4.851112225109889e-06 
3.550000e-01  4.896576862973316e-06 
3.600000e-01  4.925521087196527e-06 
3.650000e-01  4.947006725498742e-06 
3.700000e-01  4.965273407126208e-06 
3.750000e-01  4.983470574739694e-06 
3.800000e-01  5.006794006314876e-06 
3.850000e-01  5.055237144383193e-06 
3.900000e-01  5.232444394362606e-06 
3.950000e-01  5.504522388552880e-06 
4.000000e-01  5.766045432353422e-06 
4.050000e-01  6.029281395621575e-06 
4.100000e-01  6.292248616107196e-06 
4.150000e-01  6.555255460451177e-06 
4.200000e-01  6.818254315064810e-06 
4.250000e-01  7.081252336833524e-06 
4.300000e-01  7.344253728424911e-06 
4.350000e-01  7.607227299837739e-06 
4.400000e-01  7.870376791186015e-06 
4.450000e-01  8.132395798158357e-06 
4.500000e-01  8.401447191419008e-06 
4.550000e-01  8.615271823662981e-06 
4.600000e-01  8.664441018844579e-06 
4.650000e-01  8.676033624879768e-06 
4.700000e-01  8.678210624504449e-06 
4.750000e-01  8.676315666857672e-06 
4.800000e-01  8.671338205921184e-06 
4.850000e-01  8.662547098918699e-06 
4.900000e-01  8.647065522441634e-06 
4.950000e-01  8.615990216326504e-06 
5.000000e-01  8.533502066788932e-06 
5.050000e-01  8.204686510038412e-06 
5.100000e-01  7.299962210087165e-06 
5.150000e-01  6.401604481903767e-06 
5.200000e-01  5.502238575666271e-06 
5.250000e-01  4.603021763541150e-06 
5.300000e-01  3.703773772438051e-06 
5.350000e-01  2.804523201768725e-06 
5.400000e-01  1.905265305764204e-06 
5.450000e-01  1.006005168803471e-06 
5.500000e-01  1.067167442192145e-07 
5.550000e-01  -7.924316422133363e-07 
5.600000e-01  -1.692514411507495e-06 
5.650000e-01  -2.586611436263930e-06 
5.700000e-01  -3.517452658625211e-06 
5.750000e-01  -4.097959421045568e-06 
5.800000e-01  -4.228065442818114e-06 
5.850000e-01  -4.267386119510937e-06 
5.900000e-01  -4.282838498324581e-06 
5.950000e-01  -4.288447610643632e-06 
6.000000e-01  -4.287885290444967e-06 
6.050000e-01  -4.281164588189190e-06 
6.100000e-01  -4.264765965377334e-06 
6.150000e-01  -4.225790482430797e-06 
6.200000e-01  -4.106238885910987e-06 
6.250000e-01  -3.583196022451019e-06 
6.300000e-01  -2.533190732174499e-06 
6.350000e-01  -1.524351065753628e-06 
6.400000e-01  -5.087667913882398e-07 
6.450000e-01  5.056268176033744e-07 
6.500000e-01  1.521239461103924e-06 
6.550000e-01  2.530105869882682e-06 
6.600000e-01  3.580283961268490e-06 
6.650000e-01  4.239662136657426e-06 
6.700000e-01  4.389963517341570e-06 
6.750000e-01  4.437818592769409e-06 
6.800000e-01  4.459189101889053e-06 
6.850000e-01  4.470270729588144e-06 
6.900000e-01  4.475814721607402e-06 
6.950000e-01  4.477054222533303e-06 
7.000000e-01  4.472918377418906e-06 
7.050000e-01  4.457633077731063e-06 
7.100000e-01  4.403976022294942e-06 
7.150000e-01  4.159071742764056e-06 
7.200000e-01  3.661637987074906e-06 
7.250000e-01  3.183599339210135e-06 
7.300000e-01  2.702398818577619e-06 
7.350000e-01  2.221680298086876e-06 
7.400000e-01  1.740901670310646e-06 
7.450000e-01  1.259999523374505e-06 
7.500000e-01  7.799386420110331e-07 
7.550000e-01  2.945172443144093e-07 
7.600000e-01  -1.540760505161668e-07 
7.650000e-01  -2.840583161733603e-07 
7.700000e-01  -3.240080955878538e-07 
7.750000e-01  -3.443987917136829e-07 
7.800000e-01  -3.591979803385965e-07 
7.850000e-01  -3.728494911572252e-07 
7.900000e-01  -3.880836609037168e-07 
7.950000e-01  -4.084789206498742e-07 
8.000000e-01  -4.423043247307740e-07 
8.050000e-01  -5.186832825589500e-07 
8.100000e-01  -7.882638304050584e-07 
8.150000e-01  -1.722809432028311e-06 
8.200000e-01  -2.726977768014218e-06 
8.250000e-01  -3.720992147126588e-06 
8.300000e-01  -4.716480129916948e-06 
8.350000e-01  -5.712453045144495e-06 
8.400000e-01  -6.703640138722555e-06 
8.450000e-01  -7.724718437261601e-06 
8.500000e-01  -8.158541312298929e-06 
8.550000e-01  -8.261174182434536e-06 
8.600000e-01  -8.296528761408908e-06 
8.650000e-01  -8.312172149126325e-06 
8.700000e-01  -8.319178713903945e-06 
8.750000e-01  -8.320680997223634e-06 
8.800000e-01  -8.316714163472927e-06 
8.850000e-01  -8.304006539086818e-06 
8.900000e-01  -8.269594316936442e-06 
8.950000e-01  -8.149416621807789e-06 
9.000000e-01  -7.620549269296650e-06 
9.050000e-01  -6.876813021877728e-06 
9.100000e-01  -6.158356984839946e-06 
9.150000e-01  -5.435548999742226e-06 
9.200000e-01  -4.715082125846721e-06 
9.250000e-01  -3.983790797411595e-06 
9.300000e-01  -3.328544048166849e-06 
9.350000e-01  -3.151484510929304e-06 
9.400000e-01  -3.101187310517235e-06 
9.450000e-01  -3.079522858320037e-06 
9.500000e-01  -3.067366287874593e-06 
9.550000e-01  -3.059347010594212e-06 
9.600000e-01  -3.053443589630626e-06 
9.650000e-01  -3.048734582953898e-06 
9.700000e-01  -3.044752450335880e-06 
9.750000e-01  -3.041316832277995e-06 
9.800000e-01  -3.038992841959340e-06 
9.850000e-01  -3.038756021535150e-06 
9.900000e-01  -3.038785741140559e-06 
9.950000e-01  -3.038784598864003e-06 
1.000000e+00  -3.038786351137608e-06 
