TITLE ="t=0.111176" 
VARIABLES = "x"                 "mu" 
ZONE I=201, ZONETYPE=Ordered, DATAPACKING=POINT
0.000000e+00  -1.896205281503913e-03 
5.000000e-03  -1.872388154381383e-03 
1.000000e-02  -1.802393218401508e-03 
1.500000e-02  -1.690472969577114e-03 
2.000000e-02  -1.543343243210433e-03 
2.500000e-02  -1.369680614591059e-03 
3.000000e-02  -1.179506486864634e-03 
3.500000e-02  -9.835080407862580e-04 
4.000000e-02  -7.923326110542007e-04 
4.500000e-02  -6.158831033544670e-04 
5.000000e-02  -4.626442849502198e-04 
5.500000e-02  -3.390808426474683e-04 
6.000000e-02  -2.491587764921893e-04 
6.500000e-02  -1.940418804378861e-04 
7.000000e-02  -1.720003851828732e-04 
7.500000e-02  -1.785436098794810e-04 
8.000000e-02  -2.067627132013877e-04 
8.500000e-02  -2.478523027825731e-04 
9.000000e-02  -2.917730549517687e-04 
9.500000e-02  -3.280167866330236e-04 
1.000000e-01  -3.464331061983294e-04 
1.050000e-01  -3.380685526357172e-04 
1.100000e-01  -2.959572787109656e-04 
1.150000e-01  -2.157944410622808e-04 
1.200000e-01  -9.642737694690223e-05 
1.250000e-01  5.988219737312957e-05 
1.300000e-01  2.474446024020383e-04 
1.350000e-01  4.573707357870920e-04 
1.400000e-01  6.780195859604541e-04 
1.450000e-01  8.956362466420908e-04 
1.500000e-01  1.095152691943315e-03 
1.550000e-01  1.261121770443073e-03 
1.600000e-01  1.378744264430790e-03 
1.650000e-01  1.434929605262214e-03 
1.700000e-01  1.419310088058848e-03 
1.750000e-01  1.325116885729978e-03 
1.800000e-01  1.149832254110055e-03 
1.850000e-01  8.955571987084015e-04 
1.900000e-01  5.690703251649638e-04 
1.950000e-01  1.815897106279912e-04 
2.000000e-01  -2.517250839128727e-04 
2.050000e-01  -7.124836170250566e-04 
2.100000e-01  -1.179942791830471e-03 
2.150000e-01  -1.632015011631962e-03 
2.200000e-01  -2.046373077993948e-03 
2.250000e-01  -2.401615262895056e-03 
2.300000e-01  -2.678442039054508e-03 
2.350000e-01  -2.860779109830056e-03 
2.400000e-01  -2.936766357588532e-03 
2.450000e-01  -2.899526691079389e-03 
2.500000e-01  -2.747638280344022e-03 
2.550000e-01  -2.485259856813465e-03 
2.600000e-01  -2.121897669605337e-03 
2.650000e-01  -1.671845578908357e-03 
2.700000e-01  -1.153365839955592e-03 
2.750000e-01  -5.876983838035391e-04 
2.800000e-01  2.013076665916093e-06 
2.850000e-01  5.918064761622251e-04 
2.900000e-01  1.157952742493546e-03 
2.950000e-01  1.677952386262359e-03 
3.000000e-01  2.131471076849212e-03 
3.050000e-01  2.501206436004709e-03 
3.100000e-01  2.773661696705853e-03 
3.150000e-01  2.939777930190382e-03 
3.200000e-01  2.995358016921136e-03 
3.250000e-01  2.941215528816064e-03 
3.300000e-01  2.783007007852077e-03 
3.350000e-01  2.530752172366598e-03 
3.400000e-01  2.198097782219791e-03 
3.450000e-01  1.801417824059643e-03 
3.500000e-01  1.358852109333530e-03 
3.550000e-01  8.893668478158757e-04 
3.600000e-01  4.118857869137762e-04 
3.650000e-01  -5.549415394826019e-05 
3.700000e-01  -4.962092117798489e-04 
3.750000e-01  -8.958638075614306e-04 
3.800000e-01  -1.242784776107217e-03 
3.850000e-01  -1.528463338220973e-03 
3.900000e-01  -1.747838795307826e-03 
3.950000e-01  -1.899380282957441e-03 
4.000000e-01  -1.984943425438515e-03 
4.050000e-01  -2.009409753818338e-03 
4.100000e-01  -1.980146110439630e-03 
4.150000e-01  -1.906338979709488e-03 
4.200000e-01  -1.798261800645848e-03 
4.250000e-01  -1.666526046354064e-03 
4.300000e-01  -1.521356755608557e-03 
4.350000e-01  -1.371926376097532e-03 
4.400000e-01  -1.225778977827627e-03 
4.450000e-01  -1.088377591337316e-03 
4.500000e-01  -9.628061859362139e-04 
4.550000e-01  -8.496512900331645e-04 
4.600000e-01  -7.470761199134060e-04 
4.650000e-01  -6.510848109823952e-04 
4.700000e-01  -5.559594150779576e-04 
4.750000e-01  -4.548400900722627e-04 
4.800000e-01  -3.404096426741646e-04 
4.850000e-01  -2.056362142457069e-04 
4.900000e-01  -4.452163789437150e-05 
4.950000e-01  1.472013770883859e-04 
5.000000e-01  3.714802971430183e-04 
5.050000e-01  6.275128801721876e-04 
5.100000e-01  9.115139898470209e-04 
5.150000e-01  1.216698825799419e-03 
5.200000e-01  1.533483853527629e-03 
5.250000e-01  1.849891873091184e-03 
5.300000e-01  2.152138271219311e-03 
5.350000e-01  2.425370280329824e-03 
5.400000e-01  2.654526463257108e-03 
5.450000e-01  2.825275955343385e-03 
5.500000e-01  2.924984739797542e-03 
5.550000e-01  2.943641588671114e-03 
5.600000e-01  2.874664879002480e-03 
5.650000e-01  2.715510208216642e-03 
5.700000e-01  2.468012484912624e-03 
5.750000e-01  2.138424847097069e-03 
5.800000e-01  1.737154322258825e-03 
5.850000e-01  1.278230669833383e-03 
5.900000e-01  7.785706741354588e-04 
5.950000e-01  2.571099529825482e-04 
6.000000e-01  -2.661309984925265e-04 
6.050000e-01  -7.709941967670360e-04 
6.100000e-01  -1.238107802611133e-03 
6.150000e-01  -1.649757706976716e-03 
6.200000e-01  -1.990678331062107e-03 
6.250000e-01  -2.248725994298682e-03 
6.300000e-01  -2.415389055238891e-03 
6.350000e-01  -2.486086786927531e-03 
6.400000e-01  -2.460220052937450e-03 
6.450000e-01  -2.340962522562105e-03 
6.500000e-01  -2.134815929234560e-03 
6.550000e-01  -1.850986453443397e-03 
6.600000e-01  -1.500661233579515e-03 
6.650000e-01  -1.096268425828792e-03 
6.700000e-01  -6.507921191837110e-04 
6.750000e-01  -1.771911750487548e-04 
6.800000e-01  3.120531073270685e-04 
6.850000e-01  8.052553386647261e-04 
6.900000e-01  1.291717895904507e-03 
6.950000e-01  1.761810219351850e-03 
7.000000e-01  2.206952547180122e-03 
7.050000e-01  2.619523702008176e-03 
7.100000e-01  2.992716299742949e-03 
7.150000e-01  3.320367383108912e-03 
7.200000e-01  3.596796334542335e-03 
7.250000e-01  3.816682955863147e-03 
7.300000e-01  3.975015402090338e-03 
7.350000e-01  4.067129989311013e-03 
7.400000e-01  4.088853671673703e-03 
7.450000e-01  4.036746798245976e-03 
7.500000e-01  3.908430307840448e-03 
7.550000e-01  3.702969123048547e-03 
7.600000e-01  3.421273004775590e-03 
7.650000e-01  3.066468201618819e-03 
7.700000e-01  2.644188975761782e-03 
7.750000e-01  2.162739410404975e-03 
7.800000e-01  1.633085045947711e-03 
7.850000e-01  1.068651909224724e-03 
7.900000e-01  4.849353376978398e-04 
7.950000e-01  -1.010533143703228e-04 
8.000000e-01  -6.714556956157179e-04 
8.050000e-01  -1.208300393399354e-03 
8.100000e-01  -1.694261059058597e-03 
8.150000e-01  -2.113415721623230e-03 
8.200000e-01  -2.451997811931264e-03 
8.250000e-01  -2.699127617417580e-03 
8.300000e-01  -2.847491849561964e-03 
8.350000e-01  -2.893906307201799e-03 
8.400000e-01  -2.839670456446057e-03 
8.450000e-01  -2.690624089036608e-03 
8.500000e-01  -2.456855915047206e-03 
8.550000e-01  -2.152082422623679e-03 
8.600000e-01  -1.792784323372667e-03 
8.650000e-01  -1.397226091479340e-03 
8.700000e-01  -9.844764649557720e-04 
8.750000e-01  -5.735039797801003e-04 
8.800000e-01  -1.823683746886799e-04 
8.850000e-01  1.725064369360004e-04 
8.900000e-01  4.769945528480462e-04 
8.950000e-01  7.198555244440971e-04 
9.000000e-01  8.932005194722146e-04 
9.050000e-01  9.927688707721961e-04 
9.100000e-01  1.017957099646156e-03 
9.150000e-01  9.715843459136687e-04 
9.200000e-01  8.594321018464500e-04 
9.250000e-01  6.896364506866757e-04 
9.300000e-01  4.720214745779683e-04 
9.350000e-01  2.174447946868502e-04 
9.400000e-01  -6.280437116632835e-05 
9.450000e-01  -3.575400834101346e-04 
9.500000e-01  -6.561438307193123e-04 
9.550000e-01  -9.489508916629625e-04 
9.600000e-01  -1.227542870277985e-03 
9.650000e-01  -1.484926370365787e-03 
9.700000e-01  -1.715584831116148e-03 
9.750000e-01  -1.915407293311257e-03 
9.800000e-01  -2.081517278408513e-03 
9.850000e-01  -2.212039249925055e-03 
9.900000e-01  -2.305845075862038e-03 
9.950000e-01  -2.362319098574793e-03 
1.000000e+00  -2.381171453082446e-03 
