TITLE ="t=703.288398" 
VARIABLES = "x"                 "mu" 
ZONE I=201, ZONETYPE=Ordered, DATAPACKING=POINT
0.000000e+00  1.177171574422564e-05 
5.000000e-03  1.177009096267200e-05 
1.000000e-02  1.176638171252166e-05 
1.500000e-02  1.176182460584738e-05 
2.000000e-02  1.175647437648807e-05 
2.500000e-02  1.174994258462537e-05 
3.000000e-02  1.174142406339776e-05 
3.500000e-02  1.172925659491508e-05 
4.000000e-02  1.170947309175310e-05 
4.500000e-02  1.167010201573087e-05 
5.000000e-02  1.155929473022073e-05 
5.500000e-02  1.106965756780283e-05 
6.000000e-02  1.056584930017283e-05 
6.500000e-02  1.044463973104055e-05 
7.000000e-02  1.039470966213740e-05 
7.500000e-02  1.036292230419828e-05 
8.000000e-02  1.033613245040001e-05 
8.500000e-02  1.030838975436861e-05 
9.000000e-02  1.027397371123410e-05 
9.500000e-02  1.022213565536151e-05 
1.000000e-01  1.012104058590789e-05 
1.050000e-01  9.825826037664263e-06 
1.100000e-01  8.512289532858471e-06 
1.150000e-01  7.230498339394257e-06 
1.200000e-01  6.931397209202851e-06 
1.250000e-01  6.817767838369204e-06 
1.300000e-01  6.749739759261345e-06 
1.350000e-01  6.695062391084048e-06 
1.400000e-01  6.640614492838909e-06 
1.450000e-01  6.575401789330069e-06 
1.500000e-01  6.480659045147203e-06 
1.550000e-01  6.304048807605219e-06 
1.600000e-01  5.819932983972793e-06 
1.650000e-01  3.784543902425630e-06 
1.700000e-01  -1.252491148235847e-07 
1.750000e-01  -3.969556976212493e-06 
1.800000e-01  -7.135168530770057e-06 
1.850000e-01  -7.914572982602485e-06 
1.900000e-01  -8.143509007660517e-06 
1.950000e-01  -8.242595762149341e-06 
2.000000e-01  -8.295870008538428e-06 
2.050000e-01  -8.327261128495373e-06 
2.100000e-01  -8.344744910897219e-06 
2.150000e-01  -8.349119823055220e-06 
2.200000e-01  -8.332347167119438e-06 
2.250000e-01  -8.254826395666852e-06 
2.300000e-01  -7.894382732772844e-06 
2.350000e-01  -6.833980167168575e-06 
2.400000e-01  -5.772114329030710e-06 
2.450000e-01  -4.709359838904806e-06 
2.500000e-01  -3.653885456408052e-06 
2.550000e-01  -2.553502204140681e-06 
2.600000e-01  -1.960638468982142e-06 
2.650000e-01  -1.820576825720768e-06 
2.700000e-01  -1.770253370975744e-06 
2.750000e-01  -1.743599513288545e-06 
2.800000e-01  -1.725485802716962e-06 
2.850000e-01  -1.710579141879782e-06 
2.900000e-01  -1.695861610969732e-06 
2.950000e-01  -1.677906869976063e-06 
3.000000e-01  -1.648565947797762e-06 
3.050000e-01  -1.573012658589045e-06 
3.100000e-01  -1.263508127240282e-06 
3.150000e-01  -7.391354875890324e-07 
3.200000e-01  -2.362162974331116e-07 
3.250000e-01  2.707274504393477e-07 
3.300000e-01  7.736333731226478e-07 
3.350000e-01  1.298022789893685e-06 
3.400000e-01  1.581045403916700e-06 
3.450000e-01  1.648643088744441e-06 
3.500000e-01  1.673604270538875e-06 
3.550000e-01  1.687440815899074e-06 
3.600000e-01  1.697457144511566e-06 
3.650000e-01  1.706375590767984e-06 
3.700000e-01  1.716008043364355e-06 
3.750000e-01  1.728896918173897e-06 
3.800000e-01  1.751765583689373e-06 
3.850000e-01  1.814108570411733e-06 
3.900000e-01  2.075598770267953e-06 
3.950000e-01  2.520139050792948e-06 
4.000000e-01  2.946563761213439e-06 
4.050000e-01  3.375947156087706e-06 
4.100000e-01  3.804873369034720e-06 
4.150000e-01  4.233872724700046e-06 
4.200000e-01  4.662862486177563e-06 
4.250000e-01  5.091853781646377e-06 
4.300000e-01  5.520855679256060e-06 
4.350000e-01  5.949796897588126e-06 
4.400000e-01  6.379134788212320e-06 
4.450000e-01  6.805925672386440e-06 
4.500000e-01  7.248412295299090e-06 
4.550000e-01  7.554385213722932e-06 
4.600000e-01  7.624212479899108e-06 
4.650000e-01  7.645174856040434e-06 
4.700000e-01  7.653776674030736e-06 
4.750000e-01  7.657542845032080e-06 
4.800000e-01  7.658528551099972e-06 
4.850000e-01  7.657045037268612e-06 
4.900000e-01  7.652042331057178e-06 
4.950000e-01  7.639311608422804e-06 
5.000000e-01  7.600252838772113e-06 
5.050000e-01  7.431103066338125e-06 
5.100000e-01  7.046587304254018e-06 
5.150000e-01  6.674568413818193e-06 
5.200000e-01  6.300529113069901e-06 
5.250000e-01  5.926801017896888e-06 
5.300000e-01  5.553021788817740e-06 
5.350000e-01  5.179248291960841e-06 
5.400000e-01  4.805471579142604e-06 
5.450000e-01  4.431694959040100e-06 
5.500000e-01  4.057907151562110e-06 
5.550000e-01  3.684180320451020e-06 
5.600000e-01  3.310054303962461e-06 
5.650000e-01  2.938493810105424e-06 
5.700000e-01  2.551202763709894e-06 
5.750000e-01  2.345957184088114e-06 
5.800000e-01  2.298057337831208e-06 
5.850000e-01  2.281399820190588e-06 
5.900000e-01  2.273128802078468e-06 
5.950000e-01  2.268071419822926e-06 
6.000000e-01  2.264535994296271e-06 
6.050000e-01  2.261815682121200e-06 
6.100000e-01  2.259558603240349e-06 
6.150000e-01  2.257557373982681e-06 
6.200000e-01  2.255633881349994e-06 
6.250000e-01  2.253438353311370e-06 
6.300000e-01  2.251107484941461e-06 
6.350000e-01  2.248868210487055e-06 
6.400000e-01  2.246615488242011e-06 
6.450000e-01  2.244366409502723e-06 
6.500000e-01  2.242115448029190e-06 
6.550000e-01  2.239881644757601e-06 
6.600000e-01  2.237551198323684e-06 
6.650000e-01  2.236761491066546e-06 
6.700000e-01  2.237614637761652e-06 
6.750000e-01  2.238891509131766e-06 
6.800000e-01  2.240450700269132e-06 
6.850000e-01  2.242384219572660e-06 
6.900000e-01  2.244930233275718e-06 
6.950000e-01  2.248597591144328e-06 
7.000000e-01  2.254619097807380e-06 
7.050000e-01  2.266774423729889e-06 
7.100000e-01  2.301774388797388e-06 
7.150000e-01  2.451822197057311e-06 
7.200000e-01  2.734820644075954e-06 
7.250000e-01  3.006323050899011e-06 
7.300000e-01  3.279701533939436e-06 
7.350000e-01  3.552790428119730e-06 
7.400000e-01  3.825920670690992e-06 
7.450000e-01  4.099076104299251e-06 
7.500000e-01  4.372032633835074e-06 
7.550000e-01  4.646270517968415e-06 
7.600000e-01  4.912006422640279e-06 
7.650000e-01  4.993672209321513e-06 
7.700000e-01  5.012614574628434e-06 
7.750000e-01  5.017758569951428e-06 
7.800000e-01  5.018035160189643e-06 
7.850000e-01  5.015400076841882e-06 
7.900000e-01  5.009834510271979e-06 
7.950000e-01  4.999782999520319e-06 
8.000000e-01  4.980324807554521e-06 
8.050000e-01  4.933577802743478e-06 
8.100000e-01  4.768065374344108e-06 
8.150000e-01  4.132984063005897e-06 
8.200000e-01  3.405765199216714e-06 
8.250000e-01  2.691257732935876e-06 
8.300000e-01  1.974854611389662e-06 
8.350000e-01  1.258004545546608e-06 
8.400000e-01  5.460817783556945e-07 
8.450000e-01  -1.962566772600173e-07 
8.500000e-01  -6.046708261892937e-07 
8.550000e-01  -6.989600644455240e-07 
8.600000e-01  -7.308366997396574e-07 
8.650000e-01  -7.460453318089844e-07 
8.700000e-01  -7.547608303618473e-07 
8.750000e-01  -7.601673760781846e-07 
8.800000e-01  -7.633543148039439e-07 
8.850000e-01  -7.642945618071592e-07 
8.900000e-01  -7.611735153325408e-07 
8.950000e-01  -7.443168769549539e-07 
9.000000e-01  -6.595491441943220e-07 
9.050000e-01  -5.085845885702395e-07 
9.100000e-01  -3.638112566407163e-07 
9.150000e-01  -2.179886667027781e-07 
9.200000e-01  -7.256068137320644e-08 
9.250000e-01  7.440723105331122e-08 
9.300000e-01  2.109665248072659e-07 
9.350000e-01  2.500425510052355e-07 
9.400000e-01  2.608586702175296e-07 
9.450000e-01  2.654135341820110e-07 
9.500000e-01  2.679348022516253e-07 
9.550000e-01  2.695825890512484e-07 
9.600000e-01  2.707868080264539e-07 
9.650000e-01  2.717411450375510e-07 
9.700000e-01  2.725428212035830e-07 
9.750000e-01  2.732298030090440e-07 
9.800000e-01  2.737041617649470e-07 
9.850000e-01  2.737687750020631e-07 
9.900000e-01  2.737624193292711e-07 
9.950000e-01  2.737627340109898e-07 
1.000000e+00  2.737623586336858e-07 
