TITLE ="t=203.288398" 
VARIABLES = "x"                 "mu" 
ZONE I=201, ZONETYPE=Ordered, DATAPACKING=POINT
0.000000e+00  2.556336438758956e-05 
5.000000e-03  2.555796837620635e-05 
1.000000e-02  2.554159727200377e-05 
1.500000e-02  2.552032722255663e-05 
2.000000e-02  2.549527898548025e-05 
2.500000e-02  2.546488547702038e-05 
3.000000e-02  2.542565010270971e-05 
3.500000e-02  2.537041969493375e-05 
4.000000e-02  2.528254946360854e-05 
4.500000e-02  2.511381151538335e-05 
5.000000e-02  2.466752201088223e-05 
5.500000e-02  2.280120926107579e-05 
6.000000e-02  2.069534335667207e-05 
6.500000e-02  2.018112958368049e-05 
7.000000e-02  1.997249227021425e-05 
7.500000e-02  1.984649200594816e-05 
8.000000e-02  1.974728672164135e-05 
8.500000e-02  1.965118744870632e-05 
9.000000e-02  1.953837214434539e-05 
9.500000e-02  1.937458323111186e-05 
1.000000e-01  1.905890157002579e-05 
1.050000e-01  1.812174974661317e-05 
1.100000e-01  1.402140476813201e-05 
1.150000e-01  1.026091917360741e-05 
1.200000e-01  9.414684858816612e-06 
1.250000e-01  9.131556454871721e-06 
1.300000e-01  8.991205486945372e-06 
1.350000e-01  8.902416026423427e-06 
1.400000e-01  8.835518208195097e-06 
1.450000e-01  8.776559959623155e-06 
1.500000e-01  8.714324766350207e-06 
1.550000e-01  8.628883936199047e-06 
1.600000e-01  8.445911969536312e-06 
1.650000e-01  7.766189931512248e-06 
1.700000e-01  6.406770662370000e-06 
1.750000e-01  5.090986155637600e-06 
1.800000e-01  3.825227473156989e-06 
1.850000e-01  3.436458559591562e-06 
1.900000e-01  3.325149351881872e-06 
1.950000e-01  3.273596554766852e-06 
2.000000e-01  3.239828586534731e-06 
2.050000e-01  3.211651881429430e-06 
2.100000e-01  3.182957961959097e-06 
2.150000e-01  3.147475270818184e-06 
2.200000e-01  3.092475636893179e-06 
2.250000e-01  2.975548347879799e-06 
2.300000e-01  2.581864641841499e-06 
2.350000e-01  1.135917164374612e-06 
2.400000e-01  -4.803114960101561e-07 
2.450000e-01  -2.073932580344023e-06 
2.500000e-01  -3.661669522818435e-06 
2.550000e-01  -5.308391053083379e-06 
2.600000e-01  -6.075010571827382e-06 
2.650000e-01  -6.252363045353479e-06 
2.700000e-01  -6.311370600397005e-06 
2.750000e-01  -6.336556965450661e-06 
2.800000e-01  -6.347059258543326e-06 
2.850000e-01  -6.348136920436847e-06 
2.900000e-01  -6.339699331321711e-06 
2.950000e-01  -6.315946130370828e-06 
3.000000e-01  -6.254550806073445e-06 
3.050000e-01  -6.047444565431955e-06 
3.100000e-01  -5.126848141580680e-06 
3.150000e-01  -3.734179337324054e-06 
3.200000e-01  -2.393954482016910e-06 
3.250000e-01  -1.043826276201157e-06 
3.300000e-01  2.957626413212841e-07 
3.350000e-01  1.691943209465671e-06 
3.400000e-01  2.423571857817691e-06 
3.450000e-01  2.596374361387080e-06 
3.500000e-01  2.658309532324261e-06 
3.550000e-01  2.690659421647757e-06 
3.600000e-01  2.712096692031305e-06 
3.650000e-01  2.729100082292003e-06 
3.700000e-01  2.745092227297001e-06 
3.750000e-01  2.763511608137753e-06 
3.800000e-01  2.791936178606554e-06 
3.850000e-01  2.862263179977422e-06 
3.900000e-01  3.144958878156123e-06 
3.950000e-01  3.610549669798570e-06 
4.000000e-01  4.057356467768561e-06 
4.050000e-01  4.507227018344663e-06 
4.100000e-01  4.956622549374106e-06 
4.150000e-01  5.406092885504484e-06 
4.200000e-01  5.855552540369524e-06 
4.250000e-01  6.305013687156423e-06 
4.300000e-01  6.754483825071768e-06 
4.350000e-01  7.203903454265172e-06 
4.400000e-01  7.653656871881210e-06 
4.450000e-01  8.101275040318988e-06 
4.500000e-01  8.562152721887103e-06 
4.550000e-01  8.916777766993031e-06 
4.600000e-01  8.999301931793110e-06 
4.650000e-01  9.021929558105023e-06 
4.700000e-01  9.029760080847204e-06 
4.750000e-01  9.031711212512735e-06 
4.800000e-01  9.029953441876256e-06 
4.850000e-01  9.024393925146385e-06 
4.900000e-01  9.012826106426626e-06 
4.950000e-01  8.987705373252148e-06 
5.000000e-01  8.917716181435421e-06 
5.050000e-01  8.630885378303511e-06 
5.100000e-01  7.878836459803958e-06 
5.150000e-01  7.138693652860022e-06 
5.200000e-01  6.396658087606513e-06 
5.250000e-01  5.654911507132150e-06 
5.300000e-01  4.913114127014854e-06 
5.350000e-01  4.171319404130073e-06 
5.400000e-01  3.429518750971381e-06 
5.450000e-01  2.687717216562522e-06 
5.500000e-01  1.945892446686845e-06 
5.550000e-01  1.204188207149969e-06 
5.600000e-01  4.616869311628946e-07 
5.650000e-01  -2.757003294548358e-07 
5.700000e-01  -1.044436662673753e-06 
5.750000e-01  -1.493250562979603e-06 
5.800000e-01  -1.595018833439134e-06 
5.850000e-01  -1.627527933723199e-06 
5.900000e-01  -1.641645704394187e-06 
5.950000e-01  -1.648345030631011e-06 
6.000000e-01  -1.650753164976638e-06 
6.050000e-01  -1.649391032386828e-06 
6.100000e-01  -1.642673394945219e-06 
6.150000e-01  -1.623914658946150e-06 
6.200000e-01  -1.561893844632023e-06 
6.250000e-01  -1.283109669737184e-06 
6.300000e-01  -7.616431077639494e-07 
6.350000e-01  -2.614523611159761e-07 
6.400000e-01  2.422287894918192e-07 
6.450000e-01  7.452920981145416e-07 
6.500000e-01  1.248976176181890e-06 
6.550000e-01  1.749213436746244e-06 
6.600000e-01  2.270513669415973e-06 
6.650000e-01  2.583165953601844e-06 
6.700000e-01  2.654570625091064e-06 
6.750000e-01  2.677761187246938e-06 
6.800000e-01  2.688338902550253e-06 
6.850000e-01  2.694000881470584e-06 
6.900000e-01  2.697049756736400e-06 
6.950000e-01  2.698134086774165e-06 
7.000000e-01  2.696862179088900e-06 
7.050000e-01  2.690795519912464e-06 
7.100000e-01  2.668135692926406e-06 
7.150000e-01  2.562688922705616e-06 
7.200000e-01  2.358872169563211e-06 
7.250000e-01  2.163282866188007e-06 
7.300000e-01  1.966350562070592e-06 
7.350000e-01  1.769624278258330e-06 
7.400000e-01  1.572872223997591e-06 
7.450000e-01  1.376078165700972e-06 
7.500000e-01  1.179584628181100e-06 
7.550000e-01  9.811811376101162e-07 
7.600000e-01  7.957102966888444e-07 
7.650000e-01  7.393665960418864e-07 
7.700000e-01  7.202683906063478e-07 
7.750000e-01  7.089844768982102e-07 
7.800000e-01  6.995046777721964e-07 
7.850000e-01  6.896361069984093e-07 
7.900000e-01  6.775757344112697e-07 
7.950000e-01  6.603638033691394e-07 
8.000000e-01  6.306214664294716e-07 
8.050000e-01  5.620527821504944e-07 
8.100000e-01  3.187285931597132e-07 
8.150000e-01  -5.432831986471770e-07 
8.200000e-01  -1.479376540471859e-06 
8.250000e-01  -2.404773617352318e-06 
8.300000e-01  -3.331717502512262e-06 
8.350000e-01  -4.259235338239515e-06 
8.400000e-01  -5.181306055044328e-06 
8.450000e-01  -6.137148029473699e-06 
8.500000e-01  -6.576094727125694e-06 
8.550000e-01  -6.678371359906587e-06 
8.600000e-01  -6.712963692615578e-06 
8.650000e-01  -6.728206068167912e-06 
8.700000e-01  -6.735139120253922e-06 
8.750000e-01  -6.736900042383193e-06 
8.800000e-01  -6.733668441766134e-06 
8.850000e-01  -6.722669502515286e-06 
8.900000e-01  -6.692824734573551e-06 
8.950000e-01  -6.590083874840901e-06 
9.000000e-01  -6.131935872868076e-06 
9.050000e-01  -5.446671037745336e-06 
9.100000e-01  -4.786795288534376e-06 
9.150000e-01  -4.122580855825018e-06 
9.200000e-01  -3.460404220071467e-06 
9.250000e-01  -2.789319696185934e-06 
9.300000e-01  -2.179996203005088e-06 
9.350000e-01  -2.012212293946679e-06 
9.400000e-01  -1.964973837541326e-06 
9.450000e-01  -1.944782360317565e-06 
9.500000e-01  -1.933504870442571e-06 
9.550000e-01  -1.926089128894351e-06 
9.600000e-01  -1.920643602473313e-06 
9.650000e-01  -1.916309539160896e-06 
9.700000e-01  -1.912652873591825e-06 
9.750000e-01  -1.909505601962132e-06 
9.800000e-01  -1.907361760167560e-06 
9.850000e-01  -1.907119422612548e-06 
9.900000e-01  -1.907147491523957e-06 
9.950000e-01  -1.907146367777657e-06 
1.000000e+00  -1.907148036062781e-06 
