TITLE ="t=423.288398" 
VARIABLES = "x"                 "mu" 
ZONE I=201, ZONETYPE=Ordered, DATAPACKING=POINT
0.000000e+00  1.730535216143930e-05 
5.000000e-03  1.730361643403804e-05 
1.000000e-02  1.729931894156626e-05 
1.500000e-02  1.729394851595221e-05 
2.000000e-02  1.728763337264000e-05 
2.500000e-02  1.727993534138049e-05 
3.000000e-02  1.726992596341580e-05 
3.500000e-02  1.725569350557015e-05 
4.000000e-02  1.723271188385918e-05 
4.500000e-02  1.718749960230125e-05 
5.000000e-02  1.706275299387086e-05 
5.500000e-02  1.651939568840621e-05 
6.000000e-02  1.596060232043839e-05 
6.500000e-02  1.582535141011732e-05 
7.000000e-02  1.576973612366455e-05 
7.500000e-02  1.573499195704805e-05 
8.000000e-02  1.570643214963965e-05 
8.500000e-02  1.567754210834354e-05 
9.000000e-02  1.564233668798429e-05 
9.500000e-02  1.558982428766676e-05 
1.000000e-01  1.548729841309055e-05 
1.050000e-01  1.518373201584495e-05 
1.100000e-01  1.384590134023689e-05 
1.150000e-01  1.247480482449444e-05 
1.200000e-01  1.215758810173270e-05 
1.250000e-01  1.204549341878867e-05 
1.300000e-01  1.198310378136542e-05 
1.350000e-01  1.193628287803366e-05 
1.400000e-01  1.189248662414294e-05 
1.450000e-01  1.184286744633523e-05 
1.500000e-01  1.177428021543080e-05 
1.550000e-01  1.165248199913405e-05 
1.600000e-01  1.133669425920904e-05 
1.650000e-01  1.005245747983826e-05 
1.700000e-01  7.236160923349297e-06 
1.750000e-01  4.490661820020856e-06 
1.800000e-01  1.907433818196264e-06 
1.850000e-01  1.157803644862097e-06 
1.900000e-01  9.496480560251283e-07 
1.950000e-01  8.607875268972994e-07 
2.000000e-01  8.101278133750189e-07 
2.050000e-01  7.752524930243237e-07 
2.100000e-01  7.473891764151205e-07 
2.150000e-01  7.215290298693665e-07 
2.200000e-01  6.922416217834690e-07 
2.250000e-01  6.458247066783468e-07 
2.300000e-01  5.168317539370756e-07 
2.350000e-01  8.672176137430069e-08 
2.400000e-01  -3.803506539101380e-07 
2.450000e-01  -8.425000232687445e-07 
2.500000e-01  -1.302324811777592e-06 
2.550000e-01  -1.781494266946796e-06 
2.600000e-01  -2.034818170947988e-06 
2.650000e-01  -2.091648124166722e-06 
2.700000e-01  -2.109288834778097e-06 
2.750000e-01  -2.116047660983115e-06 
2.800000e-01  -2.118052299842362e-06 
2.850000e-01  -2.116842107901717e-06 
2.900000e-01  -2.112137845329511e-06 
2.950000e-01  -2.101558766603928e-06 
3.000000e-01  -2.076546268569019e-06 
3.050000e-01  -1.997161660560068e-06 
3.100000e-01  -1.645729833465264e-06 
3.150000e-01  -1.050435193955348e-06 
3.200000e-01  -4.794239988149678e-07 
3.250000e-01  9.614807582039690e-08 
3.300000e-01  6.671396006506632e-07 
3.350000e-01  1.262520601395915e-06 
3.400000e-01  1.583746789501351e-06 
3.450000e-01  1.660553469746159e-06 
3.500000e-01  1.688990899087174e-06 
3.550000e-01  1.704819097558502e-06 
3.600000e-01  1.716337938867897e-06 
3.650000e-01  1.726656774398288e-06 
3.700000e-01  1.737872504305118e-06 
3.750000e-01  1.752969159288368e-06 
3.800000e-01  1.779885591998497e-06 
3.850000e-01  1.853500690794277e-06 
3.900000e-01  2.162659945114803e-06 
3.950000e-01  2.688075087401124e-06 
4.000000e-01  3.192082286191965e-06 
4.050000e-01  3.699586620490687e-06 
4.100000e-01  4.206551351087797e-06 
4.150000e-01  4.713603266394437e-06 
4.200000e-01  5.220644611615578e-06 
4.250000e-01  5.727688793231402e-06 
4.300000e-01  6.234745296902147e-06 
4.350000e-01  6.741738168677519e-06 
4.400000e-01  7.249155332050268e-06 
4.450000e-01  7.753858157743832e-06 
4.500000e-01  8.275355365580435e-06 
4.550000e-01  8.657237723800447e-06 
4.600000e-01  8.745236774328193e-06 
4.650000e-01  8.770739247568727e-06 
4.700000e-01  8.780665934080461e-06 
4.750000e-01  8.784507371188731e-06 
4.800000e-01  8.784757838731242e-06 
4.850000e-01  8.781663845991410e-06 
4.900000e-01  8.773623794481297e-06 
4.950000e-01  8.754640174740072e-06 
5.000000e-01  8.698980732708691e-06 
5.050000e-01  8.464019619894292e-06 
5.100000e-01  7.888633456490714e-06 
5.150000e-01  7.327780636140882e-06 
5.200000e-01  6.764596625523328e-06 
5.250000e-01  6.201771019668374e-06 
5.300000e-01  5.638885400851023e-06 
5.350000e-01  5.076005452322139e-06 
5.400000e-01  4.513120752870821e-06 
5.450000e-01  3.950235778009792e-06 
5.500000e-01  3.387333389592531e-06 
5.550000e-01  2.824523334886903e-06 
5.600000e-01  2.261105353948179e-06 
5.650000e-01  1.701590899442006e-06 
5.700000e-01  1.118151357852966e-06 
5.750000e-01  7.962945212159777e-07 
5.800000e-01  7.221012109259613e-07 
5.850000e-01  6.971222819232410e-07 
5.900000e-01  6.852890298539211e-07 
5.950000e-01  6.785954927095223e-07 
6.000000e-01  6.745549661534746e-07 
6.050000e-01  6.723524052479709e-07 
6.100000e-01  6.721117517087112e-07 
6.150000e-01  6.755783641131792e-07 
6.200000e-01  6.917888953206447e-07 
6.250000e-01  7.711743078157590e-07 
6.300000e-01  9.125130788387832e-07 
6.350000e-01  1.048058639534975e-06 
6.400000e-01  1.184555651685410e-06 
6.450000e-01  1.320884470713972e-06 
6.500000e-01  1.457382981501820e-06 
6.550000e-01  1.592939638680124e-06 
6.600000e-01  1.734250777552389e-06 
6.650000e-01  1.817475746342339e-06 
6.700000e-01  1.836961723196816e-06 
6.750000e-01  1.843777735432167e-06 
6.800000e-01  1.847334880938029e-06 
6.850000e-01  1.849734293475100e-06 
6.900000e-01  1.851701185046429e-06 
6.950000e-01  1.853637429921273e-06 
7.000000e-01  1.855987603008199e-06 
7.050000e-01  1.859780529079468e-06 
7.100000e-01  1.869290505130480e-06 
7.150000e-01  1.907805316955298e-06 
7.200000e-01  1.979080876404320e-06 
7.250000e-01  2.047450037217431e-06 
7.300000e-01  2.116294058986960e-06 
7.350000e-01  2.185065562539675e-06 
7.400000e-01  2.253847422966363e-06 
7.450000e-01  2.322642526208616e-06 
7.500000e-01  2.391351108398525e-06 
7.550000e-01  2.460620433085645e-06 
7.600000e-01  2.526028235239820e-06 
7.650000e-01  2.543048912124804e-06 
7.700000e-01  2.544566951040008e-06 
7.750000e-01  2.542347257428220e-06 
7.800000e-01  2.538311970849120e-06 
7.850000e-01  2.532511292671497e-06 
7.900000e-01  2.524121321351280e-06 
7.950000e-01  2.510961937413768e-06 
8.000000e-01  2.487020454152798e-06 
8.050000e-01  2.430645413522235e-06 
8.100000e-01  2.230309492413977e-06 
8.150000e-01  1.495507941108687e-06 
8.200000e-01  6.813157347805225e-07 
8.250000e-01  -1.216169597826375e-07 
8.300000e-01  -9.261953692627189e-07 
8.350000e-01  -1.731317655491558e-06 
8.400000e-01  -2.531106489012969e-06 
8.450000e-01  -3.363817005340638e-06 
8.500000e-01  -3.783727379929216e-06 
8.550000e-01  -3.880572405142364e-06 
8.600000e-01  -3.913018187646953e-06 
8.650000e-01  -3.927642089415988e-06 
8.700000e-01  -3.934899033707330e-06 
8.750000e-01  -3.937857593251400e-06 
8.800000e-01  -3.937043776535621e-06 
8.850000e-01  -3.930850177193600e-06 
8.900000e-01  -3.912292291146364e-06 
8.950000e-01  -3.847517377490116e-06 
9.000000e-01  -3.553630409036734e-06 
9.050000e-01  -3.076925839994558e-06 
9.100000e-01  -2.619180852352818e-06 
9.150000e-01  -2.158215148289207e-06 
9.200000e-01  -1.698569586273154e-06 
9.250000e-01  -1.233530605984193e-06 
9.300000e-01  -8.053356725024128e-07 
9.350000e-01  -6.847612072188538e-07 
9.400000e-01  -6.511544166527390e-07 
9.450000e-01  -6.369151436962648e-07 
9.500000e-01  -6.290041685072533e-07 
9.550000e-01  -6.238209414376695e-07 
9.600000e-01  -6.200255637285525e-07 
9.650000e-01  -6.170124870769090e-07 
9.700000e-01  -6.144769061039985e-07 
9.750000e-01  -6.123002655601697e-07 
9.800000e-01  -6.108056680784349e-07 
9.850000e-01  -6.106166740224524e-07 
9.900000e-01  -6.106366042863143e-07 
9.950000e-01  -6.106357314731910e-07 
1.000000e+00  -6.106369192623336e-07 
