TITLE ="t=323.288398" 
VARIABLES = "x"                 "mu" 
ZONE I=201, ZONETYPE=Ordered, DATAPACKING=POINT
0.000000e+00  2.022533147136852e-05 
5.000000e-03  2.022252889553237e-05 
1.000000e-02  2.021521018468836e-05 
1.500000e-02  2.020596598041174e-05 
2.000000e-02  2.019508842877667e-05 
2.500000e-02  2.018184412450153e-05 
3.000000e-02  2.016465702919552e-05 
3.500000e-02  2.014028765069305e-05 
4.000000e-02  2.010110413683928e-05 
4.500000e-02  2.002455376727622e-05 
5.000000e-02  1.981588841237649e-05 
5.500000e-02  1.891650856000375e-05 
6.000000e-02  1.797457305954792e-05 
6.500000e-02  1.774651906154211e-05 
7.000000e-02  1.765349380943978e-05 
7.500000e-02  1.759636552138213e-05 
8.000000e-02  1.755037063033023e-05 
8.500000e-02  1.750477359803586e-05 
9.000000e-02  1.745014264681474e-05 
9.500000e-02  1.736963037596801e-05 
1.000000e-01  1.721333814005348e-05 
1.050000e-01  1.675006724734850e-05 
1.100000e-01  1.471666010357669e-05 
1.150000e-01  1.267049068393256e-05 
1.200000e-01  1.220286199902858e-05 
1.250000e-01  1.204418555226696e-05 
1.300000e-01  1.196143829530272e-05 
1.350000e-01  1.190426260211033e-05 
1.400000e-01  1.185544431144813e-05 
1.450000e-01  1.180493500954599e-05 
1.500000e-01  1.174060322302954e-05 
1.550000e-01  1.163362562674331e-05 
1.600000e-01  1.136827940517705e-05 
1.650000e-01  1.031100984097408e-05 
1.700000e-01  7.989986695895925e-06 
1.750000e-01  5.731516715976343e-06 
1.800000e-01  3.572060409613199e-06 
1.850000e-01  2.921731797415092e-06 
1.900000e-01  2.741144626312572e-06 
1.950000e-01  2.662760441215987e-06 
2.000000e-01  2.616227157602219e-06 
2.050000e-01  2.581978929991028e-06 
2.100000e-01  2.551779771997715e-06 
2.150000e-01  2.519652201797462e-06 
2.200000e-01  2.476375530878218e-06 
2.250000e-01  2.393919424676123e-06 
2.300000e-01  2.132694266048740e-06 
2.350000e-01  1.198071730305134e-06 
2.400000e-01  1.614001160599586e-07 
2.450000e-01  -8.617566973965114e-07 
2.500000e-01  -1.880336224065546e-06 
2.550000e-01  -2.940710071167904e-06 
2.600000e-01  -3.478790421444480e-06 
2.650000e-01  -3.601767265432323e-06 
2.700000e-01  -3.641956004108455e-06 
2.750000e-01  -3.659122249615553e-06 
2.800000e-01  -3.666535480973427e-06 
2.850000e-01  -3.667879259949311e-06 
2.900000e-01  -3.663322105031334e-06 
2.950000e-01  -3.649576367640145e-06 
3.000000e-01  -3.613837339533328e-06 
3.050000e-01  -3.495060253555411e-06 
3.100000e-01  -2.963398284540767e-06 
3.150000e-01  -2.096620010805669e-06 
3.200000e-01  -1.264555811720816e-06 
3.250000e-01  -4.259633657312677e-07 
3.300000e-01  4.059806958643947e-07 
3.350000e-01  1.273392484388724e-06 
3.400000e-01  1.738211732055748e-06 
3.450000e-01  1.848539109096176e-06 
3.500000e-01  1.888639433542240e-06 
3.550000e-01  1.910254954010475e-06 
3.600000e-01  1.925306100351250e-06 
3.650000e-01  1.938086015497875e-06 
3.700000e-01  1.951184521520462e-06 
3.750000e-01  1.967827847253465e-06 
3.800000e-01  1.996094462254490e-06 
3.850000e-01  2.071011737161954e-06 
3.900000e-01  2.381592830758703e-06 
3.950000e-01  2.905655329608607e-06 
4.000000e-01  3.408402312150031e-06 
4.050000e-01  3.914630153148352e-06 
4.100000e-01  4.420320293027879e-06 
4.150000e-01  4.926096817457792e-06 
4.200000e-01  5.431862483939107e-06 
4.250000e-01  5.937630816349035e-06 
4.300000e-01  6.443410790932282e-06 
4.350000e-01  6.949130450430008e-06 
4.400000e-01  7.455252821817899e-06 
4.450000e-01  7.958800703559565e-06 
4.500000e-01  8.478304731328291e-06 
4.550000e-01  8.867408516280157e-06 
4.600000e-01  8.957526023463353e-06 
4.650000e-01  8.983163801532807e-06 
4.700000e-01  8.992816061108106e-06 
4.750000e-01  8.996207700420393e-06 
4.800000e-01  8.995836982494782e-06 
4.850000e-01  8.991858950789675e-06 
4.900000e-01  8.982432404390622e-06 
4.950000e-01  8.960886599414220e-06 
5.000000e-01  8.898980928977751e-06 
5.050000e-01  8.640753952485104e-06 
5.100000e-01  7.988710448582853e-06 
5.150000e-01  7.350628064362482e-06 
5.200000e-01  6.710314985916050e-06 
5.250000e-01  6.070344242059136e-06 
5.300000e-01  5.430315349797117e-06 
5.350000e-01  4.790291212374314e-06 
5.400000e-01  4.150261805515583e-06 
5.450000e-01  3.510231920426238e-06 
5.500000e-01  2.870182092221792e-06 
5.550000e-01  2.230237155319101e-06 
5.600000e-01  1.589600459167652e-06 
5.650000e-01  9.534043579366343e-07 
5.700000e-01  2.899927932855695e-07 
5.750000e-01  -8.409788692528262e-08 
5.800000e-01  -1.697379477189351e-07 
5.850000e-01  -1.979882206378693e-07 
5.900000e-01  -2.109411882396825e-07 
5.950000e-01  -2.178346003815281e-07 
6.000000e-01  -2.214427729290491e-07 
6.050000e-01  -2.225028281347221e-07 
6.100000e-01  -2.203857074095043e-07 
6.150000e-01  -2.115908515317820e-07 
6.200000e-01  -1.790966193871426e-07 
6.250000e-01  -2.830509763390502e-08 
6.300000e-01  2.445693855024639e-07 
6.350000e-01  5.062496765101585e-07 
6.400000e-01  7.697671819685703e-07 
6.450000e-01  1.032959248840736e-06 
6.500000e-01  1.296477977736017e-06 
6.550000e-01  1.558180846001947e-06 
6.600000e-01  1.830975167971666e-06 
6.650000e-01  1.992085524068763e-06 
6.700000e-01  2.029151170840633e-06 
6.750000e-01  2.041489529168901e-06 
6.800000e-01  2.047369489905852e-06 
6.850000e-01  2.050787268091426e-06 
6.900000e-01  2.052992403236797e-06 
6.950000e-01  2.054442513574357e-06 
7.000000e-01  2.055226476118338e-06 
7.050000e-01  2.054969339010042e-06 
7.100000e-01  2.051459552228492e-06 
7.150000e-01  2.031967457544384e-06 
7.200000e-01  1.994150695728550e-06 
7.250000e-01  1.957869807354697e-06 
7.300000e-01  1.921338440621193e-06 
7.350000e-01  1.884846046776459e-06 
7.400000e-01  1.848349269159567e-06 
7.450000e-01  1.811847494089109e-06 
7.500000e-01  1.775390958321720e-06 
7.550000e-01  1.738653547493992e-06 
7.600000e-01  1.703718004026921e-06 
7.650000e-01  1.690787926595390e-06 
7.700000e-01  1.683940356804228e-06 
7.750000e-01  1.678051271428785e-06 
7.800000e-01  1.671803144384572e-06 
7.850000e-01  1.664333909727886e-06 
7.900000e-01  1.654417697143069e-06 
7.950000e-01  1.639544233607855e-06 
8.000000e-01  1.613105254213897e-06 
8.050000e-01  1.551406785360853e-06 
8.100000e-01  1.332174891875412e-06 
8.150000e-01  5.409117296954344e-07 
8.200000e-01  -3.272749437771222e-07 
8.250000e-01  -1.184457845266589e-06 
8.300000e-01  -2.043239243251235e-06 
8.350000e-01  -2.902591778281498e-06 
8.400000e-01  -3.756470735407730e-06 
8.450000e-01  -4.644180929316672e-06 
8.500000e-01  -5.074307320557819e-06 
8.550000e-01  -5.173821386109613e-06 
8.600000e-01  -5.207230918659248e-06 
8.650000e-01  -5.222081474321151e-06 
8.700000e-01  -5.229116467499289e-06 
8.750000e-01  -5.231433482469699e-06 
8.800000e-01  -5.229387111922972e-06 
8.850000e-01  -5.220806080194299e-06 
8.900000e-01  -5.196760942599868e-06 
8.950000e-01  -5.113946846103874e-06 
9.000000e-01  -4.741432009299528e-06 
9.050000e-01  -4.158373195760965e-06 
9.100000e-01  -3.597913269393877e-06 
9.150000e-01  -3.033605897705162e-06 
9.200000e-01  -2.470963015529063e-06 
9.250000e-01  -1.901324904367067e-06 
9.300000e-01  -1.379765600892352e-06 
9.350000e-01  -1.234264343758904e-06 
9.400000e-01  -1.193541743808998e-06 
9.450000e-01  -1.176224873586185e-06 
9.500000e-01  -1.166583017353565e-06 
9.550000e-01  -1.160256302157906e-06 
9.600000e-01  -1.155618208083873e-06 
9.650000e-01  -1.151932276875644e-06 
9.700000e-01  -1.148827179971923e-06 
9.750000e-01  -1.146158800818961e-06 
9.800000e-01  -1.144332607595933e-06 
9.850000e-01  -1.144111944082401e-06 
9.900000e-01  -1.144136139327858e-06 
9.950000e-01  -1.144135123659393e-06 
1.000000e+00  -1.144136565278196e-06 
