TITLE ="t=223.288398" 
VARIABLES = "x"                 "mu" 
ZONE I=201, ZONETYPE=Ordered, DATAPACKING=POINT
0.000000e+00  2.461344574915434e-05 
5.000000e-03  2.460852007378030e-05 
1.000000e-02  2.459412093547546e-05 
1.500000e-02  2.457553854272803e-05 
2.000000e-02  2.455365710693566e-05 
2.500000e-02  2.452708326387217e-05 
3.000000e-02  2.449273589113877e-05 
3.500000e-02  2.444430450704058e-05 
4.000000e-02  2.436706297001334e-05 
4.500000e-02  2.421814853559786e-05 
5.000000e-02  2.382154143514344e-05 
5.500000e-02  2.215058531645432e-05 
6.000000e-02  2.030098792633657e-05 
6.500000e-02  1.985087423486077e-05 
7.000000e-02  1.966845838763244e-05 
7.500000e-02  1.955828652218586e-05 
8.000000e-02  1.947148331633193e-05 
8.500000e-02  1.938732278125664e-05 
9.000000e-02  1.928844655860846e-05 
9.500000e-02  1.914484150766594e-05 
1.000000e-01  1.886815972095471e-05 
1.050000e-01  1.804774214742733e-05 
1.100000e-01  1.445802630486550e-05 
1.150000e-01  1.108439884434844e-05 
1.200000e-01  1.032337029157363e-05 
1.250000e-01  1.006901051380845e-05 
1.300000e-01  9.942162619499807e-06 
1.350000e-01  9.860810314841551e-06 
1.400000e-01  9.798129710616207e-06 
1.450000e-01  9.741041203103734e-06 
1.500000e-01  9.678028598125583e-06 
1.550000e-01  9.586808823810273e-06 
1.600000e-01  9.382119769516210e-06 
1.650000e-01  8.602794126181140e-06 
1.700000e-01  6.999684752114391e-06 
1.750000e-01  5.446373696716048e-06 
1.800000e-01  3.952019754506443e-06 
1.850000e-01  3.493792792240406e-06 
1.900000e-01  3.364052380112865e-06 
1.950000e-01  3.305198423324514e-06 
2.000000e-01  3.267723657038998e-06 
2.050000e-01  3.237461476572222e-06 
2.100000e-01  3.207666829952967e-06 
2.150000e-01  3.171963385849781e-06 
2.200000e-01  3.118056526169265e-06 
2.250000e-01  3.005604976636263e-06 
2.300000e-01  2.630894070063393e-06 
2.350000e-01  1.257274808128228e-06 
2.400000e-01  -2.786353229403385e-07 
2.450000e-01  -1.793030266658629e-06 
2.500000e-01  -3.301597492477435e-06 
2.550000e-01  -4.867684488812594e-06 
2.600000e-01  -5.609359404967505e-06 
2.650000e-01  -5.780566410971747e-06 
2.700000e-01  -5.837409557837906e-06 
2.750000e-01  -5.861760381728108e-06 
2.800000e-01  -5.872094337603481e-06 
2.850000e-01  -5.873519149011514e-06 
2.900000e-01  -5.866060440410143e-06 
2.950000e-01  -5.844448416918010e-06 
3.000000e-01  -5.788286751308704e-06 
3.050000e-01  -5.599086658967545e-06 
3.100000e-01  -4.756089512063048e-06 
3.150000e-01  -3.462379853899376e-06 
3.200000e-01  -2.218105598046092e-06 
3.250000e-01  -9.645054906768082e-07 
3.300000e-01  2.792701109337858e-07 
3.350000e-01  1.575718471598055e-06 
3.400000e-01  2.258594118954471e-06 
3.450000e-01  2.419941041573746e-06 
3.500000e-01  2.477848903778938e-06 
3.550000e-01  2.508221932408207e-06 
3.600000e-01  2.528494120956153e-06 
3.650000e-01  2.544743925094031e-06 
3.700000e-01  2.560247193416050e-06 
3.750000e-01  2.578421658533945e-06 
3.800000e-01  2.606996203135587e-06 
3.850000e-01  2.678708982126749e-06 
3.900000e-01  2.968904051304483e-06 
3.950000e-01  3.449517187725245e-06 
4.000000e-01  3.910698825284655e-06 
4.050000e-01  4.375050763201834e-06 
4.100000e-01  4.838911577901282e-06 
4.150000e-01  5.302850093179299e-06 
4.200000e-01  5.766777827064799e-06 
4.250000e-01  6.230707321597738e-06 
4.300000e-01  6.694646392029461e-06 
4.350000e-01  7.158532836734358e-06 
4.400000e-01  7.622768081075662e-06 
4.450000e-01  8.084772632827123e-06 
4.500000e-01  8.560625204028908e-06 
4.550000e-01  8.925160476321617e-06 
4.600000e-01  9.009947841089764e-06 
4.650000e-01  9.033383813058570e-06 
4.700000e-01  9.041660346059950e-06 
4.750000e-01  9.043936892269652e-06 
4.800000e-01  9.042470894735105e-06 
4.850000e-01  9.037224197576355e-06 
4.900000e-01  9.026058852081863e-06 
4.950000e-01  9.001583290380552e-06 
5.000000e-01  8.933007145927864e-06 
5.050000e-01  8.651066934330966e-06 
5.100000e-01  7.916447802670731e-06 
5.150000e-01  7.194192649027914e-06 
5.200000e-01  6.469970308742728e-06 
5.250000e-01  5.746048696978181e-06 
5.300000e-01  5.022074641842710e-06 
5.350000e-01  4.298103684549068e-06 
5.400000e-01  3.574126917724893e-06 
5.450000e-01  2.850149358097999e-06 
5.500000e-01  2.126149136565169e-06 
5.550000e-01  1.402266823003033e-06 
5.600000e-01  6.776052594566489e-07 
5.650000e-01  -4.205591007694498e-08 
5.700000e-01  -7.923676313902380e-07 
5.750000e-01  -1.227562827198597e-06 
5.800000e-01  -1.326405343104346e-06 
5.850000e-01  -1.358168552841090e-06 
5.900000e-01  -1.372105387060598e-06 
5.950000e-01  -1.378873935648596e-06 
6.000000e-01  -1.381541055189030e-06 
6.050000e-01  -1.380673912304026e-06 
6.100000e-01  -1.374876264586764e-06 
6.150000e-01  -1.358083604961905e-06 
6.200000e-01  -1.301818474166498e-06 
6.250000e-01  -1.047853875410436e-06 
6.300000e-01  -5.759229097933857e-07 
6.350000e-01  -1.232802126935495e-07 
6.400000e-01  3.325270454592095e-07 
6.450000e-01  7.877739966791460e-07 
6.500000e-01  1.243583505603689e-06 
6.550000e-01  1.696268404933861e-06 
6.600000e-01  2.168044855034760e-06 
6.650000e-01  2.449988069757433e-06 
6.700000e-01  2.514426297099991e-06 
6.750000e-01  2.535416497280283e-06 
6.800000e-01  2.545035165150102e-06 
6.850000e-01  2.550228698370854e-06 
6.900000e-01  2.553084595459178e-06 
6.950000e-01  2.554207584372907e-06 
7.000000e-01  2.553289550712830e-06 
7.050000e-01  2.548265638375876e-06 
7.100000e-01  2.529074443148117e-06 
7.150000e-01  2.439232495771588e-06 
7.200000e-01  2.266134734155285e-06 
7.250000e-01  2.100036828872156e-06 
7.300000e-01  1.932796296371060e-06 
7.350000e-01  1.765731220372156e-06 
7.400000e-01  1.598644244021349e-06 
7.450000e-01  1.431522766319310e-06 
7.500000e-01  1.264650783399604e-06 
7.550000e-01  1.096194404995229e-06 
7.600000e-01  9.384346252346972e-07 
7.650000e-01  8.899830502781282e-07 
7.700000e-01  8.731175754181361e-07 
7.750000e-01  8.628158236750520e-07 
7.800000e-01  8.539205353067467e-07 
7.850000e-01  8.444808858278228e-07 
7.900000e-01  8.327974083763874e-07 
7.950000e-01  8.159878354826542e-07 
8.000000e-01  7.868009257067507e-07 
8.050000e-01  7.193663274066050e-07 
8.100000e-01  4.799851172738207e-07 
8.150000e-01  -3.706179286867804e-07 
8.200000e-01  -1.295799519084246e-06 
8.250000e-01  -2.210228815420699e-06 
8.300000e-01  -3.126213700381844e-06 
8.350000e-01  -4.042775401277342e-06 
8.400000e-01  -4.953863081533622e-06 
8.450000e-01  -5.898866969130925e-06 
8.500000e-01  -6.336898666242126e-06 
8.550000e-01  -6.438814972379530e-06 
8.600000e-01  -6.473229730362630e-06 
8.650000e-01  -6.488405845371634e-06 
8.700000e-01  -6.495345358996857e-06 
8.750000e-01  -6.497180247632013e-06 
8.800000e-01  -6.494116264237710e-06 
8.850000e-01  -6.483469720856356e-06 
8.900000e-01  -6.454492218640373e-06 
8.950000e-01  -6.354810866522218e-06 
9.000000e-01  -5.909656622728310e-06 
9.050000e-01  -5.238679121479804e-06 
9.100000e-01  -4.592777845972962e-06 
9.150000e-01  -3.942594424898320e-06 
9.200000e-01  -3.294392337644271e-06 
9.250000e-01  -2.637588313531204e-06 
9.300000e-01  -2.040332026327398e-06 
9.350000e-01  -1.875495850437441e-06 
9.400000e-01  -1.829136030241887e-06 
9.450000e-01  -1.809338122201093e-06 
9.500000e-01  -1.798286532044233e-06 
9.550000e-01  -1.791022067978497e-06 
9.600000e-01  -1.785689199158369e-06 
9.650000e-01  -1.781445918652779e-06 
9.700000e-01  -1.777866813649096e-06 
9.750000e-01  -1.774787154534596e-06 
9.800000e-01  -1.772687631679846e-06 
9.850000e-01  -1.772447454934968e-06 
9.900000e-01  -1.772475007375776e-06 
9.950000e-01  -1.772473896262646e-06 
1.000000e+00  -1.772475534842853e-06 
