TITLE ="t=0.002048" 
VARIABLES = "x"                 "mu" 
ZONE I=201, ZONETYPE=Ordered, DATAPACKING=POINT
0.000000e+00  -1.375002927745383e-03 
5.000000e-03  -1.379043214617997e-03 
1.000000e-02  -1.365912502167272e-03 
1.500000e-02  -1.275658121091536e-03 
2.000000e-02  -1.053421335575536e-03 
2.500000e-02  -6.933330085225969e-04 
3.000000e-02  -2.627284582162586e-04 
3.500000e-02  1.095445290766054e-04 
4.000000e-02  2.801515439998251e-04 
4.500000e-02  1.548358137973928e-04 
5.000000e-02  -2.602990320446209e-04 
5.500000e-02  -8.448052174575726e-04 
6.000000e-02  -1.396748434852161e-03 
6.500000e-02  -1.702648693242467e-03 
7.000000e-02  -1.619070782395078e-03 
7.500000e-02  -1.133520590252090e-03 
8.000000e-02  -3.784682464632675e-04 
8.500000e-02  4.091715790212892e-04 
9.000000e-02  9.693405017911119e-04 
9.500000e-02  1.112457985263208e-03 
1.000000e-01  7.913857830910323e-04 
1.050000e-01  1.228192882779982e-04 
1.100000e-01  -6.525756980203467e-04 
1.150000e-01  -1.256632646544533e-03 
1.200000e-01  -1.473733008702766e-03 
1.250000e-01  -1.227567419116893e-03 
1.300000e-01  -6.067019236430473e-04 
1.350000e-01  1.704681534394238e-04 
1.400000e-01  8.378767057325980e-04 
1.450000e-01  1.179450392068557e-03 
1.500000e-01  1.105121393917157e-03 
1.550000e-01  6.769520894613864e-04 
1.600000e-01  7.732301439988874e-05 
1.650000e-01  -4.655781474944367e-04 
1.700000e-01  -7.638316028440429e-04 
1.750000e-01  -7.341966816090166e-04 
1.800000e-01  -4.190419533374413e-04 
1.850000e-01  3.899684296587865e-05 
1.900000e-01  4.541797939499198e-04 
1.950000e-01  6.639370416297311e-04 
2.000000e-01  5.823388222217001e-04 
2.050000e-01  2.248746092032697e-04 
2.100000e-01  -3.020744286132773e-04 
2.150000e-01  -8.420226511378531e-04 
2.200000e-01  -1.243690387341479e-03 
2.250000e-01  -1.410329191119512e-03 
2.300000e-01  -1.326132683103820e-03 
2.350000e-01  -1.052921020204754e-03 
2.400000e-01  -7.020100354264407e-04 
2.450000e-01  -3.940169170119175e-04 
2.500000e-01  -2.205779258158881e-04 
2.550000e-01  -2.181560422674030e-04 
2.600000e-01  -3.591292245837104e-04 
2.650000e-01  -5.614895410756524e-04 
2.700000e-01  -7.150998776723097e-04 
2.750000e-01  -7.181952722361802e-04 
2.800000e-01  -5.134849938932566e-04 
2.850000e-01  -1.115495501232194e-04 
2.900000e-01  4.076917266212020e-04 
2.950000e-01  9.173097682280766e-04 
3.000000e-01  1.282629783479014e-03 
3.050000e-01  1.404285660352722e-03 
3.100000e-01  1.250809159342296e-03 
3.150000e-01  8.706145935374618e-04 
3.200000e-01  3.799694871063724e-04 
3.250000e-01  -7.005844252413080e-05 
3.300000e-01  -3.393289082560565e-04 
3.350000e-01  -3.438863321874769e-04 
3.400000e-01  -8.525718845833806e-05 
3.450000e-01  3.477726152920040e-04 
3.500000e-01  8.062512994341145e-04 
3.550000e-01  1.127784094190700e-03 
3.600000e-01  1.188009281403310e-03 
3.650000e-01  9.410681365509114e-04 
3.700000e-01  4.354753970511106e-04 
3.750000e-01  -2.016523296416003e-04 
3.800000e-01  -8.073808279875693e-04 
3.850000e-01  -1.236416589398289e-03 
3.900000e-01  -1.404792589572179e-03 
3.950000e-01  -1.309294117645683e-03 
4.000000e-01  -1.019563127493006e-03 
4.050000e-01  -6.496675481568423e-04 
4.100000e-01  -3.202016952183224e-04 
4.150000e-01  -1.217839397812033e-04 
4.200000e-01  -8.943860097479451e-05 
4.250000e-01  -1.957087499197676e-04 
4.300000e-01  -3.661012994637966e-04 
4.350000e-01  -5.121476384968005e-04 
4.400000e-01  -5.684206382319612e-04 
4.450000e-01  -5.168658347116571e-04 
4.500000e-01  -3.881438557515497e-04 
4.550000e-01  -2.416208304309262e-04 
4.600000e-01  -1.354550943408209e-04 
4.650000e-01  -1.008353180673352e-04 
4.700000e-01  -1.303939541296650e-04 
4.750000e-01  -1.837539024670352e-04 
4.800000e-01  -2.063383238198266e-04 
4.850000e-01  -1.530919036288316e-04 
4.900000e-01  -7.695042829827738e-06 
4.950000e-01  2.099932641963985e-04 
5.000000e-01  4.512067770724727e-04 
5.050000e-01  6.577599765782284e-04 
5.100000e-01  7.859898642728177e-04 
5.150000e-01  8.246374619997528e-04 
5.200000e-01  7.982321313059728e-04 
5.250000e-01  7.541922556805685e-04 
5.300000e-01  7.397037884128908e-04 
5.350000e-01  7.794280262021043e-04 
5.400000e-01  8.648284231114108e-04 
5.450000e-01  9.602629147540575e-04 
5.500000e-01  1.022426316685471e-03 
5.550000e-01  1.022941268455068e-03 
5.600000e-01  9.628589424240780e-04 
5.650000e-01  8.725349345722347e-04 
5.700000e-01  7.973643585898835e-04 
5.750000e-01  7.757282315000394e-04 
5.800000e-01  8.185289209804375e-04 
5.850000e-01  8.992752436660238e-04 
5.900000e-01  9.598277280759803e-04 
5.950000e-01  9.308687414812731e-04 
6.000000e-01  7.602371024170984e-04 
6.050000e-01  4.385743826218433e-04 
6.100000e-01  1.155310972162290e-05 
6.150000e-01  -4.280750576799442e-04 
6.200000e-01  -7.678894818881075e-04 
6.250000e-01  -9.136997709140227e-04 
6.300000e-01  -8.238508223276605e-04 
6.350000e-01  -5.264636116680189e-04 
6.400000e-01  -1.122511435770501e-04 
6.450000e-01  2.954235098124498e-04 
6.500000e-01  5.829674972495627e-04 
6.550000e-01  6.859201198425478e-04 
6.600000e-01  6.101128878604287e-04 
6.650000e-01  4.263530031135016e-04 
6.700000e-01  2.412946200144271e-04 
6.750000e-01  1.567825773012782e-04 
6.800000e-01  2.335505587188283e-04 
6.850000e-01  4.719661194283245e-04 
6.900000e-01  8.152162491151933e-04 
6.950000e-01  1.172376135279006e-03 
7.000000e-01  1.452532883579982e-03 
7.050000e-01  1.597703490461820e-03 
7.100000e-01  1.602599048442657e-03 
7.150000e-01  1.513903544154892e-03 
7.200000e-01  1.409533873104597e-03 
7.250000e-01  1.366212310344134e-03 
7.300000e-01  1.428177397439759e-03 
7.350000e-01  1.589137823418133e-03 
7.400000e-01  1.794097931032526e-03 
7.450000e-01  1.959897681467848e-03 
7.500000e-01  2.006504166572424e-03 
7.550000e-01  1.887723631090894e-03 
7.600000e-01  1.610587080470654e-03 
7.650000e-01  1.236242540059601e-03 
7.700000e-01  8.607758063246299e-04 
7.750000e-01  5.813123227672905e-04 
7.800000e-01  4.592694173997335e-04 
7.850000e-01  4.952936657674882e-04 
7.900000e-01  6.266045924694558e-04 
7.950000e-01  7.485107655883384e-04 
8.000000e-01  7.524372034459542e-04 
8.050000e-01  5.669068478895603e-04 
8.100000e-01  1.867707005038931e-04 
8.150000e-01  -3.205469674774694e-04 
8.200000e-01  -8.353627297961309e-04 
8.250000e-01  -1.226255417271229e-03 
8.300000e-01  -1.396128892902163e-03 
8.350000e-01  -1.316411496685016e-03 
8.400000e-01  -1.036471109815865e-03 
8.450000e-01  -6.651568126458525e-04 
8.500000e-01  -3.319947275158821e-04 
8.550000e-01  -1.425639273253606e-04 
8.600000e-01  -1.439893346456536e-04 
8.650000e-01  -3.124347718053371e-04 
8.700000e-01  -5.662716935711555e-04 
8.750000e-01  -7.990230871260492e-04 
8.800000e-01  -9.190790007130399e-04 
8.850000e-01  -8.813845112567042e-04 
8.900000e-01  -7.001832252153698e-04 
8.950000e-01  -4.396350191863115e-04 
9.000000e-01  -1.875584303840204e-04 
9.050000e-01  -2.330476864761217e-05 
9.100000e-01  8.230874363068948e-06 
9.150000e-01  -9.194151582627631e-05 
9.200000e-01  -2.822703702676268e-04 
9.250000e-01  -4.991425504979053e-04 
9.300000e-01  -6.809175249362802e-04 
9.350000e-01  -7.888813019701765e-04 
9.400000e-01  -8.181240586379950e-04 
9.450000e-01  -7.951929894808153e-04 
9.500000e-01  -7.642427893859022e-04 
9.550000e-01  -7.674756365796563e-04 
9.600000e-01  -8.274653552916583e-04 
9.650000e-01  -9.381969464773261e-04 
9.700000e-01  -1.068649434419520e-03 
9.750000e-01  -1.177821153323011e-03 
9.800000e-01  -1.234502797564242e-03 
9.850000e-01  -1.231956664987503e-03 
9.900000e-01  -1.189903656445941e-03 
9.950000e-01  -1.143162264244414e-03 
1.000000e+00  -1.123379783389887e-03 
