TITLE ="t=2.093173" 
VARIABLES = "x"                 "mu" 
ZONE I=201, ZONETYPE=Ordered, DATAPACKING=POINT
0.000000e+00  -1.560188757648907e-05 
5.000000e-03  -1.559600695705585e-05 
1.000000e-02  -1.557922631563009e-05 
1.500000e-02  -1.555761556392152e-05 
2.000000e-02  -1.553212569263154e-05 
2.500000e-02  -1.550111566420742e-05 
3.000000e-02  -1.546096925417542e-05 
3.500000e-02  -1.540427374493514e-05 
4.000000e-02  -1.531372515969460e-05 
4.500000e-02  -1.513904134815825e-05 
5.000000e-02  -1.467617465058293e-05 
5.500000e-02  -1.292792374776649e-05 
6.000000e-02  -1.176958812694766e-05 
6.500000e-02  -1.144549883628644e-05 
7.000000e-02  -1.131037749367070e-05 
7.500000e-02  -1.123774382098922e-05 
8.000000e-02  -1.119298178770658e-05 
8.500000e-02  -1.116397766571045e-05 
9.000000e-02  -1.114696211367817e-05 
9.500000e-02  -1.114476064742230e-05 
1.000000e-01  -1.117743876365814e-05 
1.050000e-01  -1.135871359695133e-05 
1.100000e-01  -1.204640713937613e-05 
1.150000e-01  -1.231128489595252e-05 
1.200000e-01  -1.236867650075269e-05 
1.250000e-01  -1.238275307524663e-05 
1.300000e-01  -1.238234980103453e-05 
1.350000e-01  -1.237349283706165e-05 
1.400000e-01  -1.235619151099093e-05 
1.450000e-01  -1.232608711334315e-05 
1.500000e-01  -1.226970900540772e-05 
1.550000e-01  -1.214001699017068e-05 
1.600000e-01  -1.170358439010474e-05 
1.650000e-01  -9.894530406309608e-06 
1.700000e-01  -7.613179024992680e-06 
1.750000e-01  -5.361518289250227e-06 
1.800000e-01  -3.321621096915618e-06 
1.850000e-01  -2.768897430956431e-06 
1.900000e-01  -2.616869359178545e-06 
1.950000e-01  -2.555585297875401e-06 
2.000000e-01  -2.525223511287561e-06 
2.050000e-01  -2.509735667390344e-06 
2.100000e-01  -2.504347129545028e-06 
2.150000e-01  -2.509623681119705e-06 
2.200000e-01  -2.533482641208076e-06 
2.250000e-01  -2.610058067606190e-06 
2.300000e-01  -2.923221171675273e-06 
2.350000e-01  -3.995100737240217e-06 
2.400000e-01  -5.125545967446019e-06 
2.450000e-01  -6.247790479779794e-06 
2.500000e-01  -7.368088680681005e-06 
2.550000e-01  -8.508738984618915e-06 
2.600000e-01  -8.946409367367743e-06 
2.650000e-01  -9.046989110090397e-06 
2.700000e-01  -9.077609172909905e-06 
2.750000e-01  -9.086228788913654e-06 
2.800000e-01  -9.083591557600662e-06 
2.850000e-01  -9.071486737405494e-06 
2.900000e-01  -9.046693190462140e-06 
2.950000e-01  -8.997360349350587e-06 
3.000000e-01  -8.881454573879696e-06 
3.050000e-01  -8.491520445223199e-06 
3.100000e-01  -6.840103845155806e-06 
3.150000e-01  -4.672520381417730e-06 
3.200000e-01  -2.567178108884552e-06 
3.250000e-01  -4.463084069111898e-07 
3.300000e-01  1.663354641136655e-06 
3.350000e-01  3.861660298255940e-06 
3.400000e-01  4.945313146465611e-06 
3.450000e-01  5.228272815922835e-06 
3.500000e-01  5.349368528123845e-06 
3.550000e-01  5.426200705692683e-06 
3.600000e-01  5.487511754481631e-06 
3.650000e-01  5.544659191359467e-06 
3.700000e-01  5.605456102731234e-06 
3.750000e-01  5.680432851386029e-06 
3.800000e-01  5.795627250306138e-06 
3.850000e-01  6.060270403900743e-06 
3.900000e-01  7.015903671492946e-06 
3.950000e-01  8.393651292747358e-06 
4.000000e-01  9.619991456931329e-06 
4.050000e-01  1.071012744994628e-05 
4.100000e-01  1.161716308293915e-05 
4.150000e-01  1.231189201755252e-05 
4.200000e-01  1.277251145609502e-05 
4.250000e-01  1.298694784420744e-05 
4.300000e-01  1.295313300368883e-05 
4.350000e-01  1.267922170908531e-05 
4.400000e-01  1.218320188101531e-05 
4.450000e-01  1.149541614281430e-05 
4.500000e-01  1.063293664132521e-05 
4.550000e-01  9.774161274731005e-06 
4.600000e-01  9.383924017105335e-06 
4.650000e-01  9.122572340368324e-06 
4.700000e-01  8.904076096083175e-06 
4.750000e-01  8.703536642924359e-06 
4.800000e-01  8.507936812760163e-06 
4.850000e-01  8.306332494900688e-06 
4.900000e-01  8.084937230959621e-06 
4.950000e-01  7.817771045438639e-06 
5.000000e-01  7.426741735270947e-06 
5.050000e-01  6.565815471069070e-06 
5.100000e-01  4.702254890403981e-06 
5.150000e-01  2.976154888966442e-06 
5.200000e-01  1.388057674498250e-06 
5.250000e-01  -3.371671184185445e-08 
5.300000e-01  -1.273632656119815e-06 
5.350000e-01  -2.322948065972861e-06 
5.400000e-01  -3.180571137271869e-06 
5.450000e-01  -3.852624589092612e-06 
5.500000e-01  -4.351989888373813e-06 
5.550000e-01  -4.697530983150616e-06 
5.600000e-01  -4.913757815479498e-06 
5.650000e-01  -5.028023842917637e-06 
5.700000e-01  -5.075891204493370e-06 
5.750000e-01  -5.065013891874331e-06 
5.800000e-01  -5.036118658033507e-06 
5.850000e-01  -5.010165323503687e-06 
5.900000e-01  -4.986546975037403e-06 
5.950000e-01  -4.963551936859875e-06 
6.000000e-01  -4.939302887290647e-06 
6.050000e-01  -4.911083507156864e-06 
6.100000e-01  -4.873418090388265e-06 
6.150000e-01  -4.810914140322669e-06 
6.200000e-01  -4.658812383149527e-06 
6.250000e-01  -4.063817652343455e-06 
6.300000e-01  -2.873982160228294e-06 
6.350000e-01  -1.733117332454246e-06 
6.400000e-01  -5.874244662279312e-07 
6.450000e-01  5.545245174120038e-07 
6.500000e-01  1.695760264608074e-06 
6.550000e-01  2.827831223528962e-06 
6.600000e-01  4.004502746261647e-06 
6.650000e-01  4.752033246651003e-06 
6.700000e-01  4.921466752025348e-06 
6.750000e-01  4.974458451860214e-06 
6.800000e-01  4.997528145162416e-06 
6.850000e-01  5.009017307225670e-06 
6.900000e-01  5.014261427468985e-06 
6.950000e-01  5.014606960760766e-06 
7.000000e-01  5.008780447084930e-06 
7.050000e-01  4.990154735845921e-06 
7.100000e-01  4.927797953549128e-06 
7.150000e-01  4.648441412045601e-06 
7.200000e-01  4.074352492373767e-06 
7.250000e-01  3.522885125908728e-06 
7.300000e-01  2.968484179449159e-06 
7.350000e-01  2.415352120637226e-06 
7.400000e-01  1.862893851360896e-06 
7.450000e-01  1.311005815401709e-06 
7.500000e-01  7.607485895772191e-07 
7.550000e-01  2.047621319147620e-07 
7.600000e-01  -3.076879493744839e-07 
7.650000e-01  -4.548340537936295e-07 
7.700000e-01  -4.991940035544678e-07 
7.750000e-01  -5.212002881505017e-07 
7.800000e-01  -5.367248649387391e-07 
7.850000e-01  -5.507322850299670e-07 
7.900000e-01  -5.661483279959614e-07 
7.950000e-01  -5.866565779577903e-07 
8.000000e-01  -6.206460233029532e-07 
8.050000e-01  -6.976120634937689e-07 
8.100000e-01  -9.702239121577702e-07 
8.150000e-01  -1.913451848349021e-06 
8.200000e-01  -2.925652858194463e-06 
8.250000e-01  -3.928062672730179e-06 
8.300000e-01  -4.932191311145080e-06 
8.350000e-01  -5.937022158037431e-06 
8.400000e-01  -6.937520928472762e-06 
8.450000e-01  -7.966738444661506e-06 
8.500000e-01  -8.397485749028551e-06 
8.550000e-01  -8.500077298876462e-06 
8.600000e-01  -8.535798153070328e-06 
8.650000e-01  -8.551818534300447e-06 
8.700000e-01  -8.559179114490618e-06 
8.750000e-01  -8.561016553611253e-06 
8.800000e-01  -8.557368760481928e-06 
8.850000e-01  -8.544944762738180e-06 
8.900000e-01  -8.510646170542225e-06 
8.950000e-01  -8.389504255160043e-06 
9.000000e-01  -7.856736537363850e-06 
9.050000e-01  -7.116097309605323e-06 
9.100000e-01  -6.399921853110704e-06 
9.150000e-01  -5.679258177795041e-06 
9.200000e-01  -4.960704759289617e-06 
9.250000e-01  -4.230881143801898e-06 
9.300000e-01  -3.578454232834433e-06 
9.350000e-01  -3.402316018400089e-06 
9.400000e-01  -3.351748125749005e-06 
9.450000e-01  -3.329626451879316e-06 
9.500000e-01  -3.316980384487487e-06 
9.550000e-01  -3.308459690967729e-06 
9.600000e-01  -3.302036318122844e-06 
9.650000e-01  -3.296772079111617e-06 
9.700000e-01  -3.292172313274524e-06 
9.750000e-01  -3.288007112134246e-06 
9.800000e-01  -3.284745251444838e-06 
9.850000e-01  -3.283152584194791e-06 
9.900000e-01  -3.282150844232989e-06 
9.950000e-01  -3.281501229515551e-06 
1.000000e+00  -3.281282264903276e-06 
