TITLE ="t=293.288398" 
VARIABLES = "x"                 "mu" 
ZONE I=201, ZONETYPE=Ordered, DATAPACKING=POINT
0.000000e+00  2.138235238826880e-05 
5.000000e-03  2.137903856304419e-05 
1.000000e-02  2.137016936993641e-05 
1.500000e-02  2.135891265446228e-05 
2.000000e-02  2.134566393867060e-05 
2.500000e-02  2.132954137556729e-05 
3.000000e-02  2.130863779965082e-05 
3.500000e-02  2.127903619213925e-05 
4.000000e-02  2.123152857701686e-05 
4.500000e-02  2.113899930613065e-05 
5.000000e-02  2.088811983801662e-05 
5.500000e-02  1.981212070260401e-05 
6.000000e-02  1.867288957677110e-05 
6.500000e-02  1.839684603633375e-05 
7.000000e-02  1.828448308091151e-05 
7.500000e-02  1.821582828789534e-05 
8.000000e-02  1.816090729010552e-05 
8.500000e-02  1.810681260280756e-05 
9.000000e-02  1.804236242438196e-05 
9.500000e-02  1.794776671764091e-05 
1.000000e-01  1.776450721451918e-05 
1.050000e-01  1.722116793889753e-05 
1.100000e-01  1.483893363253399e-05 
1.150000e-01  1.247422371275677e-05 
1.200000e-01  1.193586770084189e-05 
1.250000e-01  1.175461051504419e-05 
1.300000e-01  1.166160590157922e-05 
1.350000e-01  1.159886660488549e-05 
1.400000e-01  1.154689698877252e-05 
1.450000e-01  1.149493777195293e-05 
1.500000e-01  1.143101015287752e-05 
1.550000e-01  1.132785250261482e-05 
1.600000e-01  1.107704320685508e-05 
1.650000e-01  1.008627691423625e-05 
1.700000e-01  7.933325502792150e-06 
1.750000e-01  5.840468353222150e-06 
1.800000e-01  3.833629373402676e-06 
1.850000e-01  3.224722273261330e-06 
1.900000e-01  3.055168010913934e-06 
1.950000e-01  2.980942490588107e-06 
2.000000e-01  2.936186448527991e-06 
2.050000e-01  2.902495795374389e-06 
2.100000e-01  2.871909676538732e-06 
2.150000e-01  2.838235426510966e-06 
2.200000e-01  2.791230508502240e-06 
2.250000e-01  2.698939182410218e-06 
2.300000e-01  2.401482360290399e-06 
2.350000e-01  1.326346263313801e-06 
2.400000e-01  1.291562179422102e-07 
2.450000e-01  -1.051878845342021e-06 
2.500000e-01  -2.227829611286391e-06 
2.550000e-01  -3.451331942039456e-06 
2.600000e-01  -4.061258153456466e-06 
2.650000e-01  -4.201070471023031e-06 
2.700000e-01  -4.247032727824258e-06 
2.750000e-01  -4.266766073788075e-06 
2.800000e-01  -4.275357937581679e-06 
2.850000e-01  -4.277011611355725e-06 
2.900000e-01  -4.271922113294562e-06 
2.950000e-01  -4.256326423063150e-06 
3.000000e-01  -4.215514713012933e-06 
3.050000e-01  -4.079065513965668e-06 
3.100000e-01  -3.468335644851512e-06 
3.150000e-01  -2.488412350839797e-06 
3.200000e-01  -1.547337018340456e-06 
3.250000e-01  -5.989511548133169e-07 
3.300000e-01  3.419334057790901e-07 
3.350000e-01  1.322878851585257e-06 
3.400000e-01  1.846530352047569e-06 
3.450000e-01  1.970598692800503e-06 
3.500000e-01  2.015480677228530e-06 
3.550000e-01  2.039452388568237e-06 
3.600000e-01  2.055918797448288e-06 
3.650000e-01  2.069654755268497e-06 
3.700000e-01  2.083440389563281e-06 
3.750000e-01  2.100569731281373e-06 
3.800000e-01  2.129079283134357e-06 
3.850000e-01  2.203614091327112e-06 
3.900000e-01  2.510803854424934e-06 
3.950000e-01  3.027003864183874e-06 
4.000000e-01  3.522232680525223e-06 
4.050000e-01  4.020885461102367e-06 
4.100000e-01  4.519008991260392e-06 
4.150000e-01  5.017217260616354e-06 
4.200000e-01  5.515414639024750e-06 
4.250000e-01  6.013614494183769e-06 
4.300000e-01  6.511825527344271e-06 
4.350000e-01  7.009978053936511e-06 
4.400000e-01  7.508520798677451e-06 
4.450000e-01  8.004568992751180e-06 
4.500000e-01  8.516085718132477e-06 
4.550000e-01  8.901825343583650e-06 
4.600000e-01  8.991294257354147e-06 
4.650000e-01  9.016566114132505e-06 
4.700000e-01  9.025943248522057e-06 
4.750000e-01  9.029083029609785e-06 
4.800000e-01  9.028442447292166e-06 
4.850000e-01  9.024131406026999e-06 
4.900000e-01  9.014226962847756e-06 
4.950000e-01  8.991848678714924e-06 
5.000000e-01  8.928000140766069e-06 
5.050000e-01  8.662750087596936e-06 
5.100000e-01  7.986650034746031e-06 
5.150000e-01  7.324148003608882e-06 
5.200000e-01  6.659476010753822e-06 
5.250000e-01  5.995136748852430e-06 
5.300000e-01  5.330740622224479e-06 
5.350000e-01  4.666348840963736e-06 
5.400000e-01  4.001951634670923e-06 
5.450000e-01  3.337553872627502e-06 
5.500000e-01  2.673135374762175e-06 
5.550000e-01  2.008825639204553e-06 
5.600000e-01  1.343798223095572e-06 
5.650000e-01  6.833773687509426e-07 
5.700000e-01  -5.276528213346090e-09 
5.750000e-01  -3.966114867801813e-07 
5.800000e-01  -4.859938528566643e-07 
5.850000e-01  -5.152664670048143e-07 
5.900000e-01  -5.285291740328589e-07 
5.950000e-01  -5.354223301826999e-07 
6.000000e-01  -5.388069852821712e-07 
6.050000e-01  -5.393796850217777e-07 
6.100000e-01  -5.363110998761029e-07 
6.150000e-01  -5.254230760853111e-07 
6.200000e-01  -4.866450128255216e-07 
6.250000e-01  -3.084711587729175e-07 
6.300000e-01  1.618491079399253e-08 
6.350000e-01  3.275284226129482e-07 
6.400000e-01  6.410565728472201e-07 
6.450000e-01  9.541977265675198e-07 
6.500000e-01  1.267727152377999e-06 
6.550000e-01  1.579098398962630e-06 
6.600000e-01  1.903652563361289e-06 
6.650000e-01  2.095822832066503e-06 
6.700000e-01  2.139917033514732e-06 
6.750000e-01  2.154475471048292e-06 
6.800000e-01  2.161307658570080e-06 
6.850000e-01  2.165167410174987e-06 
6.900000e-01  2.167517842639593e-06 
6.950000e-01  2.168849449366600e-06 
7.000000e-01  2.169136097427307e-06 
7.050000e-01  2.167527071677451e-06 
7.100000e-01  2.159603346067539e-06 
7.150000e-01  2.120351279148165e-06 
7.200000e-01  2.044976582710996e-06 
7.250000e-01  1.972661843517992e-06 
7.300000e-01  1.899847751871245e-06 
7.350000e-01  1.827110774686685e-06 
7.400000e-01  1.754364472491279e-06 
7.450000e-01  1.681605635825668e-06 
7.500000e-01  1.608944914229945e-06 
7.550000e-01  1.535665793786326e-06 
7.600000e-01  1.466480766269324e-06 
7.650000e-01  1.443542051035349e-06 
7.700000e-01  1.433879017188153e-06 
7.750000e-01  1.426749860060135e-06 
7.800000e-01  1.419754968487784e-06 
7.850000e-01  1.411725854584799e-06 
7.900000e-01  1.401302271500262e-06 
7.950000e-01  1.385865839712760e-06 
8.000000e-01  1.358617190611973e-06 
8.050000e-01  1.295211236830908e-06 
8.100000e-01  1.069953176665857e-06 
8.150000e-01  2.607992456628104e-07 
8.200000e-01  -6.245868863020266e-07 
8.250000e-01  -1.499041518389836e-06 
8.300000e-01  -2.375081755962166e-06 
8.350000e-01  -3.251697817910630e-06 
8.400000e-01  -4.122820231557337e-06 
8.450000e-01  -5.027918272316523e-06 
8.500000e-01  -5.460862052962474e-06 
8.550000e-01  -5.561170299901488e-06 
8.600000e-01  -5.594891530806038e-06 
8.650000e-01  -5.609834811761714e-06 
8.700000e-01  -5.616829212446006e-06 
8.750000e-01  -5.618983271782415e-06 
8.800000e-01  -5.616604153577953e-06 
8.850000e-01  -5.607358992533410e-06 
8.900000e-01  -5.581750638442345e-06 
8.950000e-01  -5.493671313795037e-06 
9.000000e-01  -5.098346962660967e-06 
9.050000e-01  -4.486436525135777e-06 
9.100000e-01  -3.898013196757256e-06 
9.150000e-01  -3.305587943320605e-06 
9.200000e-01  -2.714926838537429e-06 
9.250000e-01  -2.116781768673243e-06 
9.300000e-01  -1.570180148733502e-06 
9.350000e-01  -1.418164386431175e-06 
9.400000e-01  -1.375559186514833e-06 
9.450000e-01  -1.357419735811994e-06 
9.500000e-01  -1.347312461854725e-06 
9.550000e-01  -1.340677029186852e-06 
9.600000e-01  -1.335810707259167e-06 
9.650000e-01  -1.331942045218430e-06 
9.700000e-01  -1.328681846248644e-06 
9.750000e-01  -1.325879162188563e-06 
9.800000e-01  -1.323963179036746e-06 
9.850000e-01  -1.323735227278545e-06 
9.900000e-01  -1.323760548368161e-06 
9.950000e-01  -1.323759498648782e-06 
1.000000e+00  -1.323761006786928e-06 
