TITLE ="t=1.293514" 
VARIABLES = "x"                 "mu" 
ZONE I=201, ZONETYPE=Ordered, DATAPACKING=POINT
0.000000e+00  -1.566406940960604e-05 
5.000000e-03  -1.565700358357529e-05 
1.000000e-02  -1.563791786184187e-05 
1.500000e-02  -1.561393143243669e-05 
2.000000e-02  -1.558614082534235e-05 
2.500000e-02  -1.555286183749609e-05 
3.000000e-02  -1.551040228900713e-05 
3.500000e-02  -1.545125305623730e-05 
4.000000e-02  -1.535797729810785e-05 
4.500000e-02  -1.518008394210808e-05 
5.000000e-02  -1.471321067324557e-05 
5.500000e-02  -1.296262203605035e-05 
6.000000e-02  -1.181091819603953e-05 
6.500000e-02  -1.149187165163070e-05 
7.000000e-02  -1.136079533282767e-05 
7.500000e-02  -1.129166834568374e-05 
8.000000e-02  -1.125009558899993e-05 
8.500000e-02  -1.122407715969587e-05 
9.000000e-02  -1.120986474349135e-05 
9.500000e-02  -1.121010093081403e-05 
1.000000e-01  -1.124381906477120e-05 
1.050000e-01  -1.141856939779516e-05 
1.100000e-01  -1.207217043925389e-05 
1.150000e-01  -1.231981300718974e-05 
1.200000e-01  -1.236944617740600e-05 
1.250000e-01  -1.237820536455979e-05 
1.300000e-01  -1.237341001710277e-05 
1.350000e-01  -1.236060336966135e-05 
1.400000e-01  -1.233956451834508e-05 
1.450000e-01  -1.230580186812021e-05 
1.500000e-01  -1.224579672015890e-05 
1.550000e-01  -1.211270670348243e-05 
1.600000e-01  -1.167470713331655e-05 
1.650000e-01  -9.873794470804714e-06 
1.700000e-01  -7.605720624891729e-06 
1.750000e-01  -5.367659590011790e-06 
1.800000e-01  -3.340329319749555e-06 
1.850000e-01  -2.790207134287991e-06 
1.900000e-01  -2.637960352267491e-06 
1.950000e-01  -2.575894994239773e-06 
2.000000e-01  -2.544587649985447e-06 
2.050000e-01  -2.528070982677775e-06 
2.100000e-01  -2.521573252872973e-06 
2.150000e-01  -2.525630536543994e-06 
2.200000e-01  -2.548101116723627e-06 
2.250000e-01  -2.623008301022267e-06 
2.300000e-01  -2.934029519704424e-06 
2.350000e-01  -4.002661329415954e-06 
2.400000e-01  -5.130715248739067e-06 
2.450000e-01  -6.251864333313056e-06 
2.500000e-01  -7.372529314047265e-06 
2.550000e-01  -8.515167793468473e-06 
2.600000e-01  -8.955170218282767e-06 
2.650000e-01  -9.057272382069783e-06 
2.700000e-01  -9.088486942379415e-06 
2.750000e-01  -9.096800347006621e-06 
2.800000e-01  -9.092777055307071e-06 
2.850000e-01  -9.077708079880675e-06 
2.900000e-01  -9.047187921962612e-06 
2.950000e-01  -8.986257803613460e-06 
3.000000e-01  -8.842517445594545e-06 
3.050000e-01  -8.358499039951338e-06 
3.100000e-01  -6.314359997327628e-06 
3.150000e-01  -3.644146529301016e-06 
3.200000e-01  -1.071926379326777e-06 
3.250000e-01  1.485888242686409e-06 
3.300000e-01  3.987477272491143e-06 
3.350000e-01  6.529700368058512e-06 
3.400000e-01  7.458519960900230e-06 
3.450000e-01  7.327203161290555e-06 
3.500000e-01  7.004222584611752e-06 
3.550000e-01  6.617292118626226e-06 
3.600000e-01  6.175465147725859e-06 
3.650000e-01  5.654195589226522e-06 
3.700000e-01  4.995329831959927e-06 
3.750000e-01  4.063736140780178e-06 
3.800000e-01  2.461943706757710e-06 
3.850000e-01  -1.531078072255896e-06 
3.900000e-01  -1.634855740912932e-05 
3.950000e-01  -3.773685059345484e-05 
4.000000e-01  -5.636722514973077e-05 
4.050000e-01  -7.240625553188352e-05 
4.100000e-01  -8.512391100833274e-05 
4.150000e-01  -9.406244742844901e-05 
4.200000e-01  -9.888209029755861e-05 
4.250000e-01  -9.937933979134302e-05 
4.300000e-01  -9.548289361380420e-05 
4.350000e-01  -8.725250960559306e-05 
4.400000e-01  -7.486809790833685e-05 
4.450000e-01  -5.870767368128402e-05 
4.500000e-01  -3.863443025009554e-05 
4.550000e-01  -1.996601915380669e-05 
4.600000e-01  -1.098966098646999e-05 
4.650000e-01  -4.767871525031630e-06 
4.700000e-01  4.587022213826103e-07 
4.750000e-01  5.223057546284096e-06 
4.800000e-01  9.806644105106300e-06 
4.850000e-01  1.442579332543473e-05 
4.900000e-01  1.930280263513592e-05 
4.950000e-01  2.474017003860806e-05 
5.000000e-01  3.132026599215696e-05 
5.050000e-01  4.057790996589842e-05 
5.100000e-01  5.525763041381777e-05 
5.150000e-01  6.741294976243071e-05 
5.200000e-01  7.664734557540224e-05 
5.250000e-01  8.275025028373340e-05 
5.300000e-01  8.562128337528676e-05 
5.350000e-01  8.526391651600507e-05 
5.400000e-01  8.178516609707700e-05 
5.450000e-01  7.538344463741420e-05 
5.500000e-01  6.633409519192820e-05 
5.550000e-01  5.497741414518693e-05 
5.600000e-01  4.168807288905885e-05 
5.650000e-01  2.699742072921815e-05 
5.700000e-01  1.065014467757462e-05 
5.750000e-01  -2.634328506824406e-07 
5.800000e-01  -3.050466904194315e-06 
5.850000e-01  -4.102714817961738e-06 
5.900000e-01  -4.682749625487167e-06 
5.950000e-01  -5.075967189914040e-06 
6.000000e-01  -5.377068507791413e-06 
6.050000e-01  -5.625971170136394e-06 
6.100000e-01  -5.839956471923186e-06 
6.150000e-01  -6.016757883638594e-06 
6.200000e-01  -6.091563889097028e-06 
6.250000e-01  -5.615523567397523e-06 
6.300000e-01  -4.336387579359440e-06 
6.350000e-01  -3.075550638799632e-06 
6.400000e-01  -1.779440507708245e-06 
6.450000e-01  -4.592337555806668e-07 
6.500000e-01  8.854430662512042e-07 
6.550000e-01  2.240907288088550e-06 
6.600000e-01  3.667509826426926e-06 
6.650000e-01  4.595710240964176e-06 
6.700000e-01  4.828889772923956e-06 
6.750000e-01  4.918375638472872e-06 
6.800000e-01  4.969633913834642e-06 
6.850000e-01  5.005881829325452e-06 
6.900000e-01  5.034542557073773e-06 
6.950000e-01  5.058321799533036e-06 
7.000000e-01  5.077233846497221e-06 
7.050000e-01  5.086436253293947e-06 
7.100000e-01  5.058890009812950e-06 
7.150000e-01  4.830231939136692e-06 
7.200000e-01  4.312202057712135e-06 
7.250000e-01  3.800705415260293e-06 
7.300000e-01  3.270286604772756e-06 
7.350000e-01  2.723197940860909e-06 
7.400000e-01  2.158391018549717e-06 
7.450000e-01  1.576380907450179e-06 
7.500000e-01  9.799798222158507e-07 
7.550000e-01  3.640206759545127e-07 
7.600000e-01  -2.153278231920338e-07 
7.650000e-01  -3.945041928859415e-07 
7.700000e-01  -4.590683853078676e-07 
7.750000e-01  -4.972159873827913e-07 
7.800000e-01  -5.270195092842208e-07 
7.850000e-01  -5.544288537974075e-07 
7.900000e-01  -5.830106349457431e-07 
7.950000e-01  -6.169892104799706e-07 
8.000000e-01  -6.653048390219223e-07 
8.050000e-01  -7.580389874275481e-07 
8.100000e-01  -1.047514262919298e-06 
8.150000e-01  -2.007301148698609e-06 
8.200000e-01  -3.029426180181339e-06 
8.250000e-01  -4.035531859090962e-06 
8.300000e-01  -5.036815119671109e-06 
8.350000e-01  -6.032464255997200e-06 
8.400000e-01  -7.018170674477604e-06 
8.450000e-01  -8.026940955958423e-06 
8.500000e-01  -8.440756458041645e-06 
8.550000e-01  -8.531382196681550e-06 
8.600000e-01  -8.557462616847934e-06 
8.650000e-01  -8.564958487181388e-06 
8.700000e-01  -8.564341245735946e-06 
8.750000e-01  -8.558365635013023e-06 
8.800000e-01  -8.546733619504471e-06 
8.850000e-01  -8.525773034041084e-06 
8.900000e-01  -8.481794090006047e-06 
8.950000e-01  -8.348324938763639e-06 
9.000000e-01  -7.795855964141086e-06 
9.050000e-01  -7.037499532091466e-06 
9.100000e-01  -6.309332422507243e-06 
9.150000e-01  -5.582703727287699e-06 
9.200000e-01  -4.864714350105703e-06 
9.250000e-01  -4.141780650358236e-06 
9.300000e-01  -3.504206505603678e-06 
9.350000e-01  -3.345360891140105e-06 
9.400000e-01  -3.311455155059255e-06 
9.450000e-01  -3.304682892182242e-06 
9.500000e-01  -3.306543384467091e-06 
9.550000e-01  -3.312204904866491e-06 
9.600000e-01  -3.320157520609600e-06 
9.650000e-01  -3.330045582594245e-06 
9.700000e-01  -3.342158145316319e-06 
9.750000e-01  -3.357616332773027e-06 
9.800000e-01  -3.379574619623639e-06 
9.850000e-01  -3.414273063034237e-06 
9.900000e-01  -3.440746412783847e-06 
9.950000e-01  -3.457376456910260e-06 
1.000000e+00  -3.463038458964943e-06 
