TITLE ="t=473.288398" 
VARIABLES = "x"                 "mu" 
ZONE I=201, ZONETYPE=Ordered, DATAPACKING=POINT
0.000000e+00  1.621987783002867e-05 
5.000000e-03  1.621840655259251e-05 
1.000000e-02  1.621482707946101e-05 
1.500000e-02  1.621036997280799e-05 
2.000000e-02  1.620513024866549e-05 
2.500000e-02  1.619874083460115e-05 
3.000000e-02  1.619042756002161e-05 
3.500000e-02  1.617859546109216e-05 
4.000000e-02  1.615946204387589e-05 
4.500000e-02  1.612172996608280e-05 
5.000000e-02  1.601718874351981e-05 
5.500000e-02  1.556031472637637e-05 
6.000000e-02  1.509188092875575e-05 
6.500000e-02  1.497838362286966e-05 
7.000000e-02  1.493146694845404e-05 
7.500000e-02  1.490187032402585e-05 
8.000000e-02  1.487726883872765e-05 
8.500000e-02  1.485212246950108e-05 
9.000000e-02  1.482121882705225e-05 
9.500000e-02  1.477485149553715e-05 
1.000000e-01  1.468407067667905e-05 
1.050000e-01  1.441541534637319e-05 
1.100000e-01  1.322879280813057e-05 
1.150000e-01  1.201481028698363e-05 
1.200000e-01  1.173245594403136e-05 
1.250000e-01  1.163035392011761e-05 
1.300000e-01  1.157173540895453e-05 
1.350000e-01  1.152622017279040e-05 
1.400000e-01  1.148221488796892e-05 
1.450000e-01  1.143087815173400e-05 
1.500000e-01  1.135817970422848e-05 
1.550000e-01  1.122660323313238e-05 
1.600000e-01  1.088040676369101e-05 
1.650000e-01  9.461397331582234e-06 
1.700000e-01  6.394268515221098e-06 
1.750000e-01  3.402433259383761e-06 
1.800000e-01  6.226839850684099e-07 
1.850000e-01  -1.641731240094369e-07 
1.900000e-01  -3.835919206419710e-07 
1.950000e-01  -4.769309400544281e-07 
2.000000e-01  -5.292878985665291e-07 
2.050000e-01  -5.642079409451985e-07 
2.100000e-01  -5.906169439562402e-07 
2.150000e-01  -6.129286907049032e-07 
2.200000e-01  -6.344230251786448e-07 
2.250000e-01  -6.606240172958914e-07 
2.300000e-01  -7.142370248271998e-07 
2.350000e-01  -8.689689313481292e-07 
2.400000e-01  -1.033881405804135e-06 
2.450000e-01  -1.197413303736172e-06 
2.500000e-01  -1.360063607541463e-06 
2.550000e-01  -1.529593852831383e-06 
2.600000e-01  -1.619642899532831e-06 
2.650000e-01  -1.638655014932519e-06 
2.700000e-01  -1.643411286582821e-06 
2.750000e-01  -1.644036708843307e-06 
2.800000e-01  -1.642576914778737e-06 
2.850000e-01  -1.639299147173924e-06 
2.900000e-01  -1.633520494022761e-06 
2.950000e-01  -1.622974126669474e-06 
3.000000e-01  -1.600190411333667e-06 
3.050000e-01  -1.530916170448035e-06 
3.100000e-01  -1.228384972486837e-06 
3.150000e-01  -7.106056810463246e-07 
3.200000e-01  -2.140253454006884e-07 
3.250000e-01  2.865350761117951e-07 
3.300000e-01  7.831094553706391e-07 
3.350000e-01  1.300899004267189e-06 
3.400000e-01  1.580552321019190e-06 
3.450000e-01  1.647635005627452e-06 
3.500000e-01  1.672668683545109e-06 
3.550000e-01  1.686778965678910e-06 
3.600000e-01  1.697215613057740e-06 
3.650000e-01  1.706738079997839e-06 
3.700000e-01  1.717282954734247e-06 
3.750000e-01  1.731719679803895e-06 
3.800000e-01  1.757807966948170e-06 
3.850000e-01  1.829762113222791e-06 
3.900000e-01  2.132956866304671e-06 
3.950000e-01  2.648742299968186e-06 
4.000000e-01  3.143508531868267e-06 
4.050000e-01  3.641708562066826e-06 
4.100000e-01  4.139378828487726e-06 
4.150000e-01  4.637134721835214e-06 
4.200000e-01  5.134880238952845e-06 
4.250000e-01  5.632628474429702e-06 
4.300000e-01  6.130388975175985e-06 
4.350000e-01  6.628085464432556e-06 
4.400000e-01  7.126207680884523e-06 
4.450000e-01  7.621604810311572e-06 
4.500000e-01  8.133849013918117e-06 
4.550000e-01  8.504846344006881e-06 
4.600000e-01  8.590135190805752e-06 
4.650000e-01  8.615033450044941e-06 
4.700000e-01  8.624837607896039e-06 
4.750000e-01  8.628744000485695e-06 
4.800000e-01  8.629189247799304e-06 
4.850000e-01  8.626441987715467e-06 
4.900000e-01  8.619007142577872e-06 
4.950000e-01  8.601214359027513e-06 
5.000000e-01  8.548592578211610e-06 
5.050000e-01  8.325304385383024e-06 
5.100000e-01  7.786483397346221e-06 
5.150000e-01  7.262161474407761e-06 
5.200000e-01  6.735509800933516e-06 
5.250000e-01  6.209216508713980e-06 
5.300000e-01  5.682863503442861e-06 
5.350000e-01  5.156516407966067e-06 
5.400000e-01  4.630164829222837e-06 
5.450000e-01  4.103813057869588e-06 
5.500000e-01  3.577445079026148e-06 
5.550000e-01  3.051163395511896e-06 
5.600000e-01  2.524314033246840e-06 
5.650000e-01  2.001110273079001e-06 
5.700000e-01  1.455560968792964e-06 
5.750000e-01  1.157339205887271e-06 
5.800000e-01  1.088389418268270e-06 
5.850000e-01  1.064983272996131e-06 
5.900000e-01  1.053753064235314e-06 
5.950000e-01  1.047257349922567e-06 
6.000000e-01  1.043153172484998e-06 
6.050000e-01  1.040615117436614e-06 
6.100000e-01  1.039595523945658e-06 
6.150000e-01  1.041215280050729e-06 
6.200000e-01  1.051629697795665e-06 
6.250000e-01  1.105377307189310e-06 
6.300000e-01  1.200748680959547e-06 
6.350000e-01  1.292215373576745e-06 
6.400000e-01  1.384323839227982e-06 
6.450000e-01  1.476319200473158e-06 
6.500000e-01  1.568429316749955e-06 
6.550000e-01  1.659904167956519e-06 
6.600000e-01  1.755262308147105e-06 
6.650000e-01  1.811548695065660e-06 
6.700000e-01  1.824983647109582e-06 
6.750000e-01  1.829924256859560e-06 
6.800000e-01  1.832722444143764e-06 
6.850000e-01  1.834826984665079e-06 
6.900000e-01  1.836788893169855e-06 
6.950000e-01  1.839006608166097e-06 
7.000000e-01  1.842086721423652e-06 
7.050000e-01  1.847664104898617e-06 
7.100000e-01  1.862793076759194e-06 
7.150000e-01  1.926174049804539e-06 
7.200000e-01  2.044027468900986e-06 
7.250000e-01  2.157075767554954e-06 
7.300000e-01  2.270908871262822e-06 
7.350000e-01  2.384621652757700e-06 
7.400000e-01  2.498351293911383e-06 
7.450000e-01  2.612099936084415e-06 
7.500000e-01  2.725718083605134e-06 
7.550000e-01  2.840178190695763e-06 
7.600000e-01  2.948911451977380e-06 
7.650000e-01  2.979238462621296e-06 
7.700000e-01  2.984430775506624e-06 
7.750000e-01  2.983806991461079e-06 
7.800000e-01  2.980729634878788e-06 
7.850000e-01  2.975650291152674e-06 
7.900000e-01  2.967920976884929e-06 
7.950000e-01  2.955506303163042e-06 
8.000000e-01  2.932656198897974e-06 
8.050000e-01  2.878623663328583e-06 
8.100000e-01  2.686651496076635e-06 
8.150000e-01  1.976791037283851e-06 
8.200000e-01  1.186067908977204e-06 
8.250000e-01  4.067610256302509e-07 
8.300000e-01  -3.742202657814162e-07 
8.350000e-01  -1.155728092381425e-06 
8.400000e-01  -1.931991915346626e-06 
8.450000e-01  -2.740614552338397e-06 
8.500000e-01  -3.155858083054389e-06 
8.550000e-01  -3.251555778364229e-06 
8.600000e-01  -3.283624393958945e-06 
8.650000e-01  -3.298205214302728e-06 
8.700000e-01  -3.305628847633329e-06 
8.750000e-01  -3.308959032105207e-06 
8.800000e-01  -3.308813951942600e-06 
8.850000e-01  -3.303873794376617e-06 
8.900000e-01  -3.288125605799842e-06 
8.950000e-01  -3.232360465575767e-06 
9.000000e-01  -2.977875588443148e-06 
9.050000e-01  -2.558017315760256e-06 
9.100000e-01  -2.155016120231882e-06 
9.150000e-01  -1.749153780740582e-06 
9.200000e-01  -1.344438575498604e-06 
9.250000e-01  -9.350930749989153e-07 
9.300000e-01  -5.572964261737044e-07 
9.350000e-01  -4.504860408051292e-07 
9.400000e-01  -4.207677564753756e-07 
9.450000e-01  -4.081954483233611e-07 
9.500000e-01  -4.012170810747323e-07 
9.550000e-01  -3.966477869907227e-07 
9.600000e-01  -3.933036124294421e-07 
9.650000e-01  -3.906499097673623e-07 
9.700000e-01  -3.884177528068126e-07 
9.750000e-01  -3.865024390771707e-07 
9.800000e-01  -3.851854256457598e-07 
9.850000e-01  -3.850156931691823e-07 
9.900000e-01  -3.850332947969528e-07 
9.950000e-01  -3.850325078097860e-07 
1.000000e+00  -3.850335564116494e-07 
