TITLE ="t=0.153309" 
VARIABLES = "x"                 "mu" 
ZONE I=201, ZONETYPE=Ordered, DATAPACKING=POINT
0.000000e+00  -2.902948478642547e-03 
5.000000e-03  -2.854189841002902e-03 
1.000000e-02  -2.711348459976424e-03 
1.500000e-02  -2.484376995766081e-03 
2.000000e-02  -2.188780468300826e-03 
2.500000e-02  -1.844249521692360e-03 
3.000000e-02  -1.473125746867201e-03 
3.500000e-02  -1.098855530575396e-03 
4.000000e-02  -7.444822524874383e-04 
4.500000e-02  -4.311603531086389e-04 
5.000000e-02  -1.766849493291887e-04 
5.500000e-02  5.894622434141083e-06 
6.000000e-02  1.094209677002164e-04 
6.500000e-02  1.333403096938546e-04 
7.000000e-02  8.383465302954323e-05 
7.500000e-02  -2.665255025619044e-05 
8.000000e-02  -1.804014499544630e-04 
8.500000e-02  -3.557531250732834e-04 
9.000000e-02  -5.286582951314877e-04 
9.500000e-02  -6.743603994120621e-04 
1.000000e-01  -7.691867315825759e-04 
1.050000e-01  -7.924134119230435e-04 
1.100000e-01  -7.280995697321740e-04 
1.150000e-01  -5.666956591554526e-04 
1.200000e-01  -3.061875746129390e-04 
1.250000e-01  4.740901558770489e-05 
1.300000e-01  4.802506222249179e-04 
1.350000e-01  9.714551804412733e-04 
1.400000e-01  1.494281958949473e-03 
1.450000e-01  2.017526743024313e-03 
1.500000e-01  2.507061555166959e-03 
1.550000e-01  2.927565627564592e-03 
1.600000e-01  3.244548621266710e-03 
1.650000e-01  3.426710527755059e-03 
1.700000e-01  3.448519016182905e-03 
1.750000e-01  3.292681167934910e-03 
1.800000e-01  2.952057233511028e-03 
1.850000e-01  2.430612375395866e-03 
1.900000e-01  1.743240898639495e-03 
1.950000e-01  9.146182389116485e-04 
2.000000e-01  -2.252583553882946e-05 
2.050000e-01  -1.029274393184601e-03 
2.100000e-01  -2.062235820464809e-03 
2.150000e-01  -3.075045732186852e-03 
2.200000e-01  -4.019826560239223e-03 
2.250000e-01  -4.848898763508154e-03 
2.300000e-01  -5.517016405415130e-03 
2.350000e-01  -5.984216343464084e-03 
2.400000e-01  -6.219058676572548e-03 
2.450000e-01  -6.201706082603660e-03 
2.500000e-01  -5.926113722047895e-03 
2.550000e-01  -5.400725072423205e-03 
2.600000e-01  -4.647486927711936e-03 
2.650000e-01  -3.699514697074734e-03 
2.700000e-01  -2.598092937938575e-03 
2.750000e-01  -1.389733789453306e-03 
2.800000e-01  -1.237774093680342e-04 
2.850000e-01  1.149336588497138e-03 
2.900000e-01  2.379312859106295e-03 
2.950000e-01  3.517132617061474e-03 
3.000000e-01  4.516478291492091e-03 
3.050000e-01  5.335725016847784e-03 
3.100000e-01  5.940500819497319e-03 
3.150000e-01  6.306465688178666e-03 
3.200000e-01  6.421666549462421e-03 
3.250000e-01  6.287763729240951e-03 
3.300000e-01  5.919687325195939e-03 
3.350000e-01  5.343773578836033e-03 
3.400000e-01  4.594898667335715e-03 
3.450000e-01  3.713333932096427e-03 
3.500000e-01  2.741933388723848e-03 
3.550000e-01  1.723953708238447e-03 
3.600000e-01  7.014808194435023e-04 
3.650000e-01  -2.857755308025254e-04 
3.700000e-01  -1.201613500674871e-03 
3.750000e-01  -2.014605022322663e-03 
3.800000e-01  -2.699522523909264e-03 
3.850000e-01  -3.238747870532232e-03 
3.900000e-01  -3.623342321563391e-03 
3.950000e-01  -3.853450196020064e-03 
4.000000e-01  -3.937853195482553e-03 
4.050000e-01  -3.892718904174617e-03 
4.100000e-01  -3.739782175264649e-03 
4.150000e-01  -3.504276299115569e-03 
4.200000e-01  -3.212883875437315e-03 
4.250000e-01  -2.891863416585719e-03 
4.300000e-01  -2.565401651075424e-03 
4.350000e-01  -2.254190621373626e-03 
4.400000e-01  -1.974237981918688e-03 
4.450000e-01  -1.735960547807940e-03 
4.500000e-01  -1.543645228383123e-03 
4.550000e-01  -1.395358316731420e-03 
4.600000e-01  -1.283339465344597e-03 
4.650000e-01  -1.194851993768893e-03 
4.700000e-01  -1.113407582081109e-03 
4.750000e-01  -1.020260279475546e-03 
4.800000e-01  -8.960682905156999e-04 
4.850000e-01  -7.226311456686920e-04 
4.900000e-01  -4.846038488956039e-04 
4.950000e-01  -1.710645361475622e-04 
5.000000e-01  2.232137915182800e-04 
5.050000e-01  6.969340808142168e-04 
5.100000e-01  1.241983783587973e-03 
5.150000e-01  1.843685073768872e-03 
5.200000e-01  2.481497119620426e-03 
5.250000e-01  3.130030029192769e-03 
5.300000e-01  3.760245901973213e-03 
5.350000e-01  4.340792777849741e-03 
5.400000e-01  4.839500782346069e-03 
5.450000e-01  5.225115112236523e-03 
5.500000e-01  5.469307652700462e-03 
5.550000e-01  5.548888657648600e-03 
5.600000e-01  5.447969383972759e-03 
5.650000e-01  5.159689984327142e-03 
5.700000e-01  4.687121144714255e-03 
5.750000e-01  4.043117234793604e-03 
5.800000e-01  3.249185196233859e-03 
5.850000e-01  2.333698809258601e-03 
5.900000e-01  1.329903869151523e-03 
5.950000e-01  2.740896848540197e-04 
6.000000e-01  -7.958915781975611e-04 
6.050000e-01  -1.841790556904942e-03 
6.100000e-01  -2.825994688105193e-03 
6.150000e-01  -3.712657869467892e-03 
6.200000e-01  -4.469084008964596e-03 
6.250000e-01  -5.067363130043656e-03 
6.300000e-01  -5.486063277705635e-03 
6.350000e-01  -5.711633975303379e-03 
6.400000e-01  -5.739160284015328e-03 
6.450000e-01  -5.572249550554195e-03 
6.500000e-01  -5.222077220242929e-03 
6.550000e-01  -4.705845737171840e-03 
6.600000e-01  -4.045020125837126e-03 
6.650000e-01  -3.263670300797870e-03 
6.700000e-01  -2.387122864263919e-03 
6.750000e-01  -1.440980156233643e-03 
6.800000e-01  -4.504582303366244e-04 
6.850000e-01  5.600513394229109e-04 
6.900000e-01  1.567286593870354e-03 
6.950000e-01  2.549344588802855e-03 
7.000000e-01  3.485853572269245e-03 
7.050000e-01  4.358080490579236e-03 
7.100000e-01  5.148961815282787e-03 
7.150000e-01  5.843060486982736e-03 
7.200000e-01  6.426476146139989e-03 
7.250000e-01  6.886757821229196e-03 
7.300000e-01  7.212879203142658e-03 
7.350000e-01  7.395333598505287e-03 
7.400000e-01  7.426390209188659e-03 
7.450000e-01  7.300528568160857e-03 
7.500000e-01  7.015035826681081e-03 
7.550000e-01  6.570713295979407e-03 
7.600000e-01  5.972597339146706e-03 
7.650000e-01  5.230564336119329e-03 
7.700000e-01  4.359675830433252e-03 
7.750000e-01  3.380145310571628e-03 
7.800000e-01  2.316878871288020e-03 
7.850000e-01  1.198642344808844e-03 
7.900000e-01  5.699909261689057e-05 
7.950000e-01  -1.074798226428953e-03 
8.000000e-01  -2.162816216095117e-03 
8.050000e-01  -3.173307943803773e-03 
8.100000e-01  -4.073526615531225e-03 
8.150000e-01  -4.832673586000713e-03 
8.200000e-01  -5.423185975883820e-03 
8.250000e-01  -5.822466581783689e-03 
8.300000e-01  -6.014936370009995e-03 
8.350000e-01  -5.994015932765653e-03 
8.400000e-01  -5.763460448121775e-03 
8.450000e-01  -5.337536710214780e-03 
8.500000e-01  -4.739875882978473e-03 
8.550000e-01  -4.001301183673909e-03 
8.600000e-01  -3.157250578238394e-03 
8.650000e-01  -2.245422781535682e-03 
8.700000e-01  -1.304012285716048e-03 
8.750000e-01  -3.705465008992522e-04 
8.800000e-01  5.189311903301507e-04 
8.850000e-01  1.330687500119927e-03 
8.900000e-01  2.034409128042101e-03 
8.950000e-01  2.604652852552325e-03 
9.000000e-01  3.022421702301337e-03 
9.050000e-01  3.276456647409054e-03 
9.100000e-01  3.363828135202086e-03 
9.150000e-01  3.289620251512281e-03 
9.200000e-01  3.065810019100346e-03 
9.250000e-01  2.709680187632374e-03 
9.300000e-01  2.242155593615829e-03 
9.350000e-01  1.686338384064249e-03 
9.400000e-01  1.066337710133621e-03 
9.450000e-01  4.063461477516854e-04 
9.500000e-01  -2.701415284805957e-04 
9.550000e-01  -9.410451551985721e-04 
9.600000e-01  -1.586358121191005e-03 
9.650000e-01  -2.188687899919408e-03 
9.700000e-01  -2.733592956424809e-03 
9.750000e-01  -3.209658823870591e-03 
9.800000e-01  -3.608317389509327e-03 
9.850000e-01  -3.923474224950809e-03 
9.900000e-01  -4.151042934609619e-03 
9.950000e-01  -4.288486435125014e-03 
1.000000e+00  -4.334443076568969e-03 
