TITLE ="t=343.288398" 
VARIABLES = "x"                 "mu" 
ZONE I=201, ZONETYPE=Ordered, DATAPACKING=POINT
0.000000e+00  1.953500106925171e-05 
5.000000e-03  1.953248273422412e-05 
1.000000e-02  1.952599506118060e-05 
1.500000e-02  1.951782258183494e-05 
2.000000e-02  1.950820753220126e-05 
2.500000e-02  1.949649693615509e-05 
3.000000e-02  1.948129257500454e-05 
3.500000e-02  1.945971919546249e-05 
4.000000e-02  1.942499471824074e-05 
4.500000e-02  1.935703798667069e-05 
5.000000e-02  1.917123751994007e-05 
5.500000e-02  1.836823358035973e-05 
6.000000e-02  1.753184401624065e-05 
6.500000e-02  1.732941605222585e-05 
7.000000e-02  1.724672916419624e-05 
7.500000e-02  1.719578394613380e-05 
8.000000e-02  1.715459945427047e-05 
8.500000e-02  1.711360524802411e-05 
9.000000e-02  1.706431853777407e-05 
9.500000e-02  1.699150102307646e-05 
1.000000e-01  1.684997716814354e-05 
1.050000e-01  1.643057942042743e-05 
1.100000e-01  1.458834813352638e-05 
1.150000e-01  1.272216840089846e-05 
1.200000e-01  1.229459883112318e-05 
1.250000e-01  1.214856068188932e-05 
1.300000e-01  1.207148501857606e-05 
1.350000e-01  1.201733514783244e-05 
1.400000e-01  1.197017329974563e-05 
1.450000e-01  1.192033179006441e-05 
1.500000e-01  1.185554918524571e-05 
1.550000e-01  1.174598857429481e-05 
1.600000e-01  1.147120121644005e-05 
1.650000e-01  1.037097785609481e-05 
1.700000e-01  7.946874543272527e-06 
1.750000e-01  5.586865725835477e-06 
1.800000e-01  3.335692457812398e-06 
1.850000e-01  2.661770693297236e-06 
1.900000e-01  2.474823850162549e-06 
1.950000e-01  2.394049185557205e-06 
2.000000e-01  2.346537503288713e-06 
2.050000e-01  2.312057635317533e-06 
2.100000e-01  2.282230729701478e-06 
2.150000e-01  2.251246914598687e-06 
2.200000e-01  2.210597208431488e-06 
2.250000e-01  2.134954086804940e-06 
2.300000e-01  1.898680758718815e-06 
2.350000e-01  1.060562827681154e-06 
2.400000e-01  1.339323720410945e-07 
2.450000e-01  -7.809680639042681e-07 
2.500000e-01  -1.691675965005745e-06 
2.550000e-01  -2.640029782430951e-06 
2.600000e-01  -3.126323023251586e-06 
2.650000e-01  -3.237221552656963e-06 
2.700000e-01  -3.273282081464329e-06 
2.750000e-01  -3.288583022922925e-06 
2.800000e-01  -3.295089594382624e-06 
2.850000e-01  -3.296104242482254e-06 
2.900000e-01  -3.291748403135975e-06 
2.950000e-01  -3.278996452458143e-06 
3.000000e-01  -3.246142086754946e-06 
3.050000e-01  -3.137554017436974e-06 
3.100000e-01  -2.651841560762284e-06 
3.150000e-01  -1.852404959236522e-06 
3.200000e-01  -1.085157157865284e-06 
3.250000e-01  -3.118581338961285e-07 
3.300000e-01  4.553029422586991e-07 
3.350000e-01  1.255190332754702e-06 
3.400000e-01  1.684693552205843e-06 
3.450000e-01  1.786776894277363e-06 
3.500000e-01  1.824010661471672e-06 
3.550000e-01  1.844210591163420e-06 
3.600000e-01  1.858406566067817e-06 
3.650000e-01  1.870602083117891e-06 
3.700000e-01  1.883270276225123e-06 
3.750000e-01  1.899589763905408e-06 
3.800000e-01  1.927642218459084e-06 
3.850000e-01  2.002586209255403e-06 
3.900000e-01  2.314320761963975e-06 
3.950000e-01  2.841473787908675e-06 
4.000000e-01  3.347173300825107e-06 
4.050000e-01  3.856376562663740e-06 
4.100000e-01  4.365038771422046e-06 
4.150000e-01  4.873788057738068e-06 
4.200000e-01  5.382526525750337e-06 
4.250000e-01  5.891267747361973e-06 
4.300000e-01  6.400020848776446e-06 
4.350000e-01  6.908712652791840e-06 
4.400000e-01  7.417813840247302e-06 
4.450000e-01  7.924297696603963e-06 
4.500000e-01  8.446997698276769e-06 
4.550000e-01  8.836721066625935e-06 
4.600000e-01  8.926891028853199e-06 
4.650000e-01  8.952653504247863e-06 
4.700000e-01  8.962432991462334e-06 
4.750000e-01  8.965958611724254e-06 
4.800000e-01  8.965743655063701e-06 
4.850000e-01  8.961968074070698e-06 
4.900000e-01  8.952842265873903e-06 
4.950000e-01  8.931832904858679e-06 
5.000000e-01  8.871201288458747e-06 
5.050000e-01  8.617634938879122e-06 
5.100000e-01  7.981335289114763e-06 
5.150000e-01  7.359187079029041e-06 
5.200000e-01  6.734775917237866e-06 
5.250000e-01  6.110712203359677e-06 
5.300000e-01  5.486589679429416e-06 
5.350000e-01  4.862472146117942e-06 
5.400000e-01  4.238349446259025e-06 
5.450000e-01  3.614226314466295e-06 
5.500000e-01  2.990083758721958e-06 
5.550000e-01  2.366043537177690e-06 
5.600000e-01  1.741328652115574e-06 
5.650000e-01  1.120944870387120e-06 
5.700000e-01  4.740166836578013e-07 
5.750000e-01  1.109797348143954e-07 
5.800000e-01  2.774723244700817e-08 
5.850000e-01  1.666786218346616e-10 
5.900000e-01  -1.257280181739601e-08 
5.950000e-01  -1.944992933110642e-08 
6.000000e-01  -2.318140599120928e-08 
6.050000e-01  -2.452674336851126e-08 
6.100000e-01  -2.297715265028551e-08 
6.150000e-01  -1.544292042976435e-08 
6.200000e-01  1.324059756883532e-08 
6.250000e-01  1.473844927274728e-07 
6.300000e-01  3.891403165589158e-07 
6.350000e-01  6.209778422168469e-07 
6.400000e-01  8.544433271766569e-07 
6.450000e-01  1.087620481112714e-06 
6.500000e-01  1.321087211691090e-06 
6.550000e-01  1.552944324150216e-06 
6.600000e-01  1.794633136162912e-06 
6.650000e-01  1.937192888998762e-06 
6.700000e-01  1.970064405738806e-06 
6.750000e-01  1.981079970904532e-06 
6.800000e-01  1.986396305133129e-06 
6.850000e-01  1.989557521906399e-06 
6.900000e-01  1.991686527783235e-06 
6.950000e-01  1.993223606211031e-06 
7.000000e-01  1.994332204377061e-06 
7.050000e-01  1.994940064387337e-06 
7.100000e-01  1.994238205215584e-06 
7.150000e-01  1.987294536994220e-06 
7.200000e-01  1.973196661581126e-06 
7.250000e-01  1.959670316146170e-06 
7.300000e-01  1.946050963712325e-06 
7.350000e-01  1.932446421987875e-06 
7.400000e-01  1.918840649998764e-06 
7.450000e-01  1.905234337709608e-06 
7.500000e-01  1.891641668974374e-06 
7.550000e-01  1.877969856461761e-06 
7.600000e-01  1.864734677585538e-06 
7.650000e-01  1.858196251445661e-06 
7.700000e-01  1.853142411927037e-06 
7.750000e-01  1.848042613179638e-06 
7.800000e-01  1.842270473704182e-06 
7.850000e-01  1.835159316691873e-06 
7.900000e-01  1.825569250630610e-06 
7.950000e-01  1.811059972328666e-06 
8.000000e-01  1.785148245116740e-06 
8.050000e-01  1.724567449171916e-06 
8.100000e-01  1.509290077434466e-06 
8.150000e-01  7.298121904193259e-07 
8.200000e-01  -1.270544199523343e-07 
8.250000e-01  -9.728691035905870e-07 
8.300000e-01  -1.820291058227448e-06 
8.350000e-01  -2.668279931215630e-06 
8.400000e-01  -3.510815724974558e-06 
8.450000e-01  -4.387044486744629e-06 
8.500000e-01  -4.815170748110587e-06 
8.550000e-01  -4.914140788102783e-06 
8.600000e-01  -4.947344277335399e-06 
8.650000e-01  -4.962137850269858e-06 
8.700000e-01  -4.969206191221834e-06 
8.750000e-01  -4.971639814937904e-06 
8.800000e-01  -4.969826052385365e-06 
8.850000e-01  -4.961703925155284e-06 
8.900000e-01  -4.938728734442045e-06 
8.950000e-01  -4.859483165500121e-06 
9.000000e-01  -4.502474040924444e-06 
9.050000e-01  -3.939579806124028e-06 
9.100000e-01  -3.398633343329945e-06 
9.150000e-01  -2.853952165490714e-06 
9.200000e-01  -2.310867663834151e-06 
9.250000e-01  -1.761113370705513e-06 
9.300000e-01  -1.257141018946985e-06 
9.350000e-01  -1.116265467799301e-06 
9.400000e-01  -1.076872644545753e-06 
9.450000e-01  -1.060134287787477e-06 
9.500000e-01  -1.050818922063047e-06 
9.550000e-01  -1.044708401708892e-06 
9.600000e-01  -1.040229924105566e-06 
9.650000e-01  -1.036671640143703e-06 
9.700000e-01  -1.033674761397813e-06 
9.750000e-01  -1.031099975574891e-06 
9.800000e-01  -1.029336582057674e-06 
9.850000e-01  -1.029121393696683e-06 
9.900000e-01  -1.029144792487451e-06 
9.950000e-01  -1.029143801920339e-06 
1.000000e+00  -1.029145196316407e-06 
