TITLE ="t=303.288398" 
VARIABLES = "x"                 "mu" 
ZONE I=201, ZONETYPE=Ordered, DATAPACKING=POINT
0.000000e+00  2.097988390682588e-05 
5.000000e-03  2.097675267674365e-05 
1.000000e-02  2.096844592396110e-05 
1.500000e-02  2.095792121027870e-05 
2.000000e-02  2.094553499876184e-05 
2.500000e-02  2.093045904708536e-05 
3.000000e-02  2.091090621117855e-05 
3.500000e-02  2.088320493827471e-05 
4.000000e-02  2.083871759531729e-05 
4.500000e-02  2.075197651817063e-05 
5.000000e-02  2.051634376822196e-05 
5.500000e-02  1.950393567254219e-05 
6.000000e-02  1.843634085179028e-05 
6.500000e-02  1.817773425804207e-05 
7.000000e-02  1.807239337213710e-05 
7.500000e-02  1.800791783574196e-05 
8.000000e-02  1.795622658187502e-05 
8.500000e-02  1.790519965649343e-05 
9.000000e-02  1.784428671422770e-05 
9.500000e-02  1.775475544560075e-05 
1.000000e-01  1.758118279643997e-05 
1.050000e-01  1.706659531034849e-05 
1.100000e-01  1.480960881315158e-05 
1.150000e-01  1.255782379031177e-05 
1.200000e-01  1.204451486690810e-05 
1.250000e-01  1.187129087285643e-05 
1.300000e-01  1.178195027290707e-05 
1.350000e-01  1.172120784219992e-05 
1.400000e-01  1.167037930853007e-05 
1.450000e-01  1.161896109133156e-05 
1.500000e-01  1.155492725502378e-05 
1.550000e-01  1.145048301153692e-05 
1.600000e-01  1.119471326518235e-05 
1.650000e-01  1.018121660699418e-05 
1.700000e-01  7.969830054061969e-06 
1.750000e-01  5.819398903315702e-06 
1.800000e-01  3.759124830129930e-06 
1.850000e-01  3.135439104542639e-06 
1.900000e-01  2.961962155002660e-06 
1.950000e-01  2.886254659755709e-06 
2.000000e-01  2.840854025280911e-06 
2.050000e-01  2.806942154952855e-06 
2.100000e-01  2.776456521721305e-06 
2.150000e-01  2.743270454737735e-06 
2.200000e-01  2.697475366966012e-06 
2.250000e-01  2.608406535708869e-06 
2.300000e-01  2.322864118336124e-06 
2.350000e-01  1.293956166809297e-06 
2.400000e-01  1.495833680550026e-07 
2.450000e-01  -9.795047108025138e-07 
2.500000e-01  -2.103667397776158e-06 
2.550000e-01  -3.273533841595900e-06 
2.600000e-01  -3.860350225455121e-06 
2.650000e-01  -3.994734592537163e-06 
2.700000e-01  -4.038832336917635e-06 
2.750000e-01  -4.057742676414521e-06 
2.800000e-01  -4.065966926822275e-06 
2.850000e-01  -4.067542513501032e-06 
2.900000e-01  -4.062661713594318e-06 
2.950000e-01  -4.047731157740771e-06 
3.000000e-01  -4.008711136210121e-06 
3.050000e-01  -3.878478046306619e-06 
3.100000e-01  -3.295479110827144e-06 
3.150000e-01  -2.354854634166620e-06 
3.200000e-01  -1.451658698397619e-06 
3.250000e-01  -5.414210560989900e-07 
3.300000e-01  3.616108016461319e-07 
3.350000e-01  1.303110229518503e-06 
3.400000e-01  1.806402512816506e-06 
3.450000e-01  1.925714379053906e-06 
3.500000e-01  1.968940427502732e-06 
3.550000e-01  1.992096757292737e-06 
3.600000e-01  2.008074431261126e-06 
3.650000e-01  2.021481675880217e-06 
3.700000e-01  2.035033275953205e-06 
3.750000e-01  2.052001287576340e-06 
3.800000e-01  2.080441500044716e-06 
3.850000e-01  2.155152585930295e-06 
3.900000e-01  2.463707281987523e-06 
3.950000e-01  2.982981194758077e-06 
4.000000e-01  3.481149832235321e-06 
4.050000e-01  3.982764570103984e-06 
4.100000e-01  4.483846759007677e-06 
4.150000e-01  4.985014320394146e-06 
4.200000e-01  5.486170997798323e-06 
4.250000e-01  5.987330222891355e-06 
4.300000e-01  6.488500795414268e-06 
4.350000e-01  6.989612212657360e-06 
4.400000e-01  7.491118353051501e-06 
4.450000e-01  7.990101150574375e-06 
4.500000e-01  8.504728390579013e-06 
4.550000e-01  8.891934270104641e-06 
4.600000e-01  8.981700453400508e-06 
4.650000e-01  9.007119622520601e-06 
4.700000e-01  9.016600367726587e-06 
4.750000e-01  9.019831274403345e-06 
4.800000e-01  9.019285747091112e-06 
4.850000e-01  9.015089837927864e-06 
4.900000e-01  9.005348469257948e-06 
4.950000e-01  8.983251622688175e-06 
5.000000e-01  8.920055356396913e-06 
5.050000e-01  8.657151924380923e-06 
5.100000e-01  7.989132301924854e-06 
5.150000e-01  7.334842329853986e-06 
5.200000e-01  6.678360470478066e-06 
5.250000e-01  6.022214806853998e-06 
5.300000e-01  5.366011811061420e-06 
5.350000e-01  4.709813304851128e-06 
5.400000e-01  4.053609425762338e-06 
5.450000e-01  3.397405017986068e-06 
5.500000e-01  2.741180140574999e-06 
5.550000e-01  2.085062730811822e-06 
5.600000e-01  1.428236316399417e-06 
5.650000e-01  7.759609220355687e-07 
5.700000e-01  9.579308352643949e-08 
5.750000e-01  -2.897007357890451e-07 
5.800000e-01  -3.778172111281080e-07 
5.850000e-01  -4.067464975950756e-07 
5.900000e-01  -4.199073680120122e-07 
5.950000e-01  -4.268039937848823e-07 
6.000000e-01  -4.302684571017992e-07 
6.050000e-01  -4.310117841680021e-07 
6.100000e-01  -4.282741225771483e-07 
6.150000e-01  -4.181115620555622e-07 
6.200000e-01  -3.815056654027855e-07 
6.250000e-01  -2.127878470634699e-07 
6.300000e-01  9.390210393944499e-08 
6.350000e-01  3.880137137407683e-07 
6.400000e-01  6.841895472542028e-07 
6.450000e-01  9.799997127280222e-07 
6.500000e-01  1.276176789768919e-06 
6.550000e-01  1.570314328103426e-06 
6.600000e-01  1.876909847678834e-06 
6.650000e-01  2.058275626721173e-06 
6.700000e-01  2.099924113443963e-06 
6.750000e-01  2.113709692984555e-06 
6.800000e-01  2.120209622604693e-06 
6.850000e-01  2.123914101147806e-06 
6.900000e-01  2.126211759181791e-06 
6.950000e-01  2.127581166552624e-06 
7.000000e-01  2.128034940957389e-06 
7.050000e-01  2.126883888023798e-06 
7.100000e-01  2.120458761283866e-06 
7.150000e-01  2.087919881159807e-06 
7.200000e-01  2.025336675636290e-06 
7.250000e-01  1.965294815531177e-06 
7.300000e-01  1.904838288739076e-06 
7.350000e-01  1.844445903884038e-06 
7.400000e-01  1.784045869919419e-06 
7.450000e-01  1.723635931240500e-06 
7.500000e-01  1.663305727880637e-06 
7.550000e-01  1.602474440672648e-06 
7.600000e-01  1.544939487194188e-06 
7.650000e-01  1.525395005583980e-06 
7.700000e-01  1.516687596560178e-06 
7.750000e-01  1.509979451367775e-06 
7.800000e-01  1.503237905591048e-06 
7.850000e-01  1.495398440162415e-06 
7.900000e-01  1.485146326980924e-06 
7.950000e-01  1.469899615649336e-06 
8.000000e-01  1.442923019457638e-06 
8.050000e-01  1.380089471488829e-06 
8.100000e-01  1.156849382141179e-06 
8.150000e-01  3.536758456916306e-07 
8.200000e-01  -5.259602107525732e-07 
8.250000e-01  -1.394640562676667e-06 
8.300000e-01  -2.264910794044042e-06 
8.350000e-01  -3.135755527471847e-06 
8.400000e-01  -4.001111721969616e-06 
8.450000e-01  -4.900404777571577e-06 
8.500000e-01  -5.332439859343068e-06 
8.550000e-01  -5.432487648065959e-06 
8.600000e-01  -5.466105059294176e-06 
8.650000e-01  -5.481016626989927e-06 
8.700000e-01  -5.488023341231062e-06 
8.750000e-01  -5.490230078539933e-06 
8.800000e-01  -5.487959576726806e-06 
8.850000e-01  -5.478932247066761e-06 
8.900000e-01  -5.453838660901229e-06 
8.950000e-01  -5.367500325683376e-06 
9.000000e-01  -4.979707817838282e-06 
9.050000e-01  -4.377212556320902e-06 
9.100000e-01  -3.797920810714254e-06 
9.150000e-01  -3.214676567920037e-06 
9.200000e-01  -2.633163579474245e-06 
9.250000e-01  -2.044329403396492e-06 
9.300000e-01  -1.505882635936659e-06 
9.350000e-01  -1.355978068031677e-06 
9.400000e-01  -1.313984386156553e-06 
9.450000e-01  -1.296112640329099e-06 
9.500000e-01  -1.286157003145546e-06 
9.550000e-01  -1.279622228152509e-06 
9.600000e-01  -1.274830363060976e-06 
9.650000e-01  -1.271021345353300e-06 
9.700000e-01  -1.267811798722776e-06 
9.750000e-01  -1.265052998442510e-06 
9.800000e-01  -1.263166307772799e-06 
9.850000e-01  -1.262940657442498e-06 
9.900000e-01  -1.262965613123598e-06 
9.950000e-01  -1.262964574261668e-06 
1.000000e+00  -1.262966060845408e-06 
