TITLE ="t=193.288398" 
VARIABLES = "x"                 "mu" 
ZONE I=201, ZONETYPE=Ordered, DATAPACKING=POINT
0.000000e+00  2.599404417708774e-05 
5.000000e-03  2.598846587790882e-05 
1.000000e-02  2.597118103854321e-05 
1.500000e-02  2.594863918528574e-05 
2.000000e-02  2.592209253069436e-05 
2.500000e-02  2.588989636079952e-05 
3.000000e-02  2.584836239967705e-05 
3.500000e-02  2.578995017316851e-05 
4.000000e-02  2.569714119122880e-05 
4.500000e-02  2.551930169784563e-05 
5.000000e-02  2.505072131799578e-05 
5.500000e-02  2.309941039146818e-05 
6.000000e-02  2.087457648681843e-05 
6.500000e-02  2.032983633724471e-05 
7.000000e-02  2.010834241935305e-05 
7.500000e-02  1.997430503922560e-05 
8.000000e-02  1.986855884185124e-05 
8.500000e-02  1.976592346875205e-05 
9.000000e-02  1.964521600920537e-05 
9.500000e-02  1.946967803598482e-05 
1.000000e-01  1.913082172813059e-05 
1.050000e-01  1.812341034422287e-05 
1.100000e-01  1.371467954221790e-05 
1.150000e-01  9.730225126606798e-06 
1.200000e-01  8.834553351048778e-06 
1.250000e-01  8.534549534755471e-06 
1.300000e-01  8.386236330588087e-06 
1.350000e-01  8.293058801075442e-06 
1.400000e-01  8.223687157174832e-06 
1.450000e-01  8.163668612994924e-06 
1.500000e-01  8.101994717040203e-06 
1.550000e-01  8.020231583962964e-06 
1.600000e-01  7.851034743164756e-06 
1.650000e-01  7.234712105647054e-06 
1.700000e-01  6.023750672670421e-06 
1.750000e-01  4.852272798801073e-06 
1.800000e-01  3.725598746163338e-06 
1.850000e-01  3.379228743583460e-06 
1.900000e-01  3.279211831555514e-06 
1.950000e-01  3.232175487035038e-06 
2.000000e-01  3.200747027496323e-06 
2.050000e-01  3.173943343610328e-06 
2.100000e-01  3.146059535412716e-06 
2.150000e-01  3.110922227297152e-06 
2.200000e-01  3.055629242303049e-06 
2.250000e-01  2.936822954747870e-06 
2.300000e-01  2.534490219631396e-06 
2.350000e-01  1.055846358669402e-06 
2.400000e-01  -5.961269774997854e-07 
2.450000e-01  -2.225066395341632e-06 
2.500000e-01  -3.848126567919993e-06 
2.550000e-01  -5.530583159550819e-06 
2.600000e-01  -6.306861391279190e-06 
2.650000e-01  -6.486650242652582e-06 
2.700000e-01  -6.546522715484479e-06 
2.750000e-01  -6.572017586286449e-06 
2.800000e-01  -6.582533707277631e-06 
2.850000e-01  -6.583382860509448e-06 
2.900000e-01  -6.574403446628643e-06 
2.950000e-01  -6.549514415492071e-06 
3.000000e-01  -6.485379555160780e-06 
3.050000e-01  -6.268906306157927e-06 
3.100000e-01  -5.307991209159673e-06 
3.150000e-01  -3.865040924349375e-06 
3.200000e-01  -2.475989823246794e-06 
3.250000e-01  -1.076754856313951e-06 
3.300000e-01  3.115820565213547e-07 
3.350000e-01  1.758486321739157e-06 
3.400000e-01  2.514561486565396e-06 
3.450000e-01  2.693118535578111e-06 
3.500000e-01  2.757082704582751e-06 
3.550000e-01  2.790428428573431e-06 
3.600000e-01  2.812450722002326e-06 
3.650000e-01  2.829829410572868e-06 
3.700000e-01  2.846059806927256e-06 
3.750000e-01  2.864587391900191e-06 
3.800000e-01  2.892902999774214e-06 
3.850000e-01  2.962430032051882e-06 
3.900000e-01  3.240900999179755e-06 
3.950000e-01  3.698140269454158e-06 
4.000000e-01  4.136955167618225e-06 
4.050000e-01  4.578774661888705e-06 
4.100000e-01  5.020128092188934e-06 
4.150000e-01  5.461554730337234e-06 
4.200000e-01  5.902970752205614e-06 
4.250000e-01  6.344388123127286e-06 
4.300000e-01  6.785814174212589e-06 
4.350000e-01  7.227190846689601e-06 
4.400000e-01  7.668893293185906e-06 
4.450000e-01  8.108511431295088e-06 
4.500000e-01  8.561074640779378e-06 
4.550000e-01  8.910064398390482e-06 
4.600000e-01  8.991291709910724e-06 
4.650000e-01  9.013464929730323e-06 
4.700000e-01  9.021049295019918e-06 
4.750000e-01  9.022823882754277e-06 
4.800000e-01  9.020910389982288e-06 
4.850000e-01  9.015186429402487e-06 
4.900000e-01  9.003409842339865e-06 
4.950000e-01  8.977958143584173e-06 
5.000000e-01  8.907250403314452e-06 
5.050000e-01  8.617947765681966e-06 
5.100000e-01  7.857052062225712e-06 
5.150000e-01  7.107815229766817e-06 
5.200000e-01  6.356725702186023e-06 
5.250000e-01  5.605918836920467e-06 
5.300000e-01  4.855062058825234e-06 
5.350000e-01  4.104207702233351e-06 
5.400000e-01  3.353347352248946e-06 
5.450000e-01  2.602486072243284e-06 
5.500000e-01  1.851601265561660e-06 
5.550000e-01  1.100838297957116e-06 
5.600000e-01  3.492693860986395e-07 
5.650000e-01  -3.971286416298089e-07 
5.700000e-01  -1.175225596854533e-06 
5.750000e-01  -1.631053650196886e-06 
5.800000e-01  -1.734327530033802e-06 
5.850000e-01  -1.767216479770261e-06 
5.900000e-01  -1.781422988160572e-06 
5.950000e-01  -1.788081949540202e-06 
6.000000e-01  -1.790351206667737e-06 
6.050000e-01  -1.788727000159893e-06 
6.100000e-01  -1.781524968285553e-06 
6.150000e-01  -1.761735030214932e-06 
6.200000e-01  -1.696707531247918e-06 
6.250000e-01  -1.404982768787122e-06 
6.300000e-01  -8.574225703199468e-07 
6.350000e-01  -3.321795289091975e-07 
6.400000e-01  1.967246117874000e-07 
6.450000e-01  7.249807874205897e-07 
6.500000e-01  1.253888295732758e-06 
6.550000e-01  1.779179923070841e-06 
6.600000e-01  2.326569262090481e-06 
6.650000e-01  2.655508102664887e-06 
6.700000e-01  2.730608693051871e-06 
6.750000e-01  2.754965691938696e-06 
6.800000e-01  2.766052555179576e-06 
6.850000e-01  2.771964649427261e-06 
6.900000e-01  2.775118921483989e-06 
6.950000e-01  2.776187939805215e-06 
7.000000e-01  2.774737822505130e-06 
7.050000e-01  2.768138881921228e-06 
7.100000e-01  2.743704196228790e-06 
7.150000e-01  2.630268831871118e-06 
7.200000e-01  2.410601641350136e-06 
7.250000e-01  2.199792661158849e-06 
7.300000e-01  1.987537741194576e-06 
7.350000e-01  1.775504530920172e-06 
7.400000e-01  1.563443569366805e-06 
7.450000e-01  1.351336635598505e-06 
7.500000e-01  1.139557099087814e-06 
7.550000e-01  9.256961358724513e-07 
7.600000e-01  7.259473646123921e-07 
7.650000e-01  6.655512356266741e-07 
7.700000e-01  6.453060443979036e-07 
7.750000e-01  6.335179843425553e-07 
7.800000e-01  6.237389404066195e-07 
7.850000e-01  6.136517598976876e-07 
7.900000e-01  6.014005295719397e-07 
7.950000e-01  5.839865361243047e-07 
8.000000e-01  5.539678267946626e-07 
8.050000e-01  4.848391038498773e-07 
8.100000e-01  2.395748039447362e-07 
8.150000e-01  -6.280175778797158e-07 
8.200000e-01  -1.569437629099062e-06 
8.250000e-01  -2.500190436257241e-06 
8.300000e-01  -3.432485610616678e-06 
8.350000e-01  -4.365352699425791e-06 
8.400000e-01  -5.292790215816837e-06 
8.450000e-01  -6.253901764403168e-06 
8.500000e-01  -6.693196196859589e-06 
8.550000e-01  -6.795631754405351e-06 
8.600000e-01  -6.830307853466318e-06 
8.650000e-01  -6.845582711846372e-06 
8.700000e-01  -6.852513943318066e-06 
8.750000e-01  -6.854240984122156e-06 
8.800000e-01  -6.850930912689587e-06 
8.850000e-01  -6.839765221039736e-06 
8.900000e-01  -6.809506227492006e-06 
8.950000e-01  -6.705290164323956e-06 
9.000000e-01  -6.240907726520206e-06 
9.050000e-01  -5.548995871331690e-06 
9.100000e-01  -4.882603948167569e-06 
9.150000e-01  -4.211849349538473e-06 
9.200000e-01  -3.543159603530422e-06 
9.250000e-01  -2.865412455023525e-06 
9.300000e-01  -2.250512207310588e-06 
9.350000e-01  -2.081387452258657e-06 
9.400000e-01  -2.033746107105813e-06 
9.450000e-01  -2.013373036508173e-06 
9.500000e-01  -2.001990948767034e-06 
9.550000e-01  -1.994504999567428e-06 
9.600000e-01  -1.989007096956176e-06 
9.650000e-01  -1.984630762451816e-06 
9.700000e-01  -1.980937926500579e-06 
9.750000e-01  -1.977759073650991e-06 
9.800000e-01  -1.975594627187102e-06 
9.850000e-01  -1.975351442448877e-06 
9.900000e-01  -1.975379746811095e-06 
9.950000e-01  -1.975378617594270e-06 
1.000000e+00  -1.975380299311490e-06 
