TITLE ="t=573.288398" 
VARIABLES = "x"                 "mu" 
ZONE I=201, ZONETYPE=Ordered, DATAPACKING=POINT
0.000000e+00  1.435220008613434e-05 
5.000000e-03  1.435087530309946e-05 
1.000000e-02  1.434774156807358e-05 
1.500000e-02  1.434386232648955e-05 
2.000000e-02  1.433930433060084e-05 
2.500000e-02  1.433374323053480e-05 
3.000000e-02  1.432650015029825e-05 
3.500000e-02  1.431617518962302e-05 
4.000000e-02  1.429943929433435e-05 
4.500000e-02  1.426630490738897e-05 
5.000000e-02  1.417387516784093e-05 
5.500000e-02  1.376785331375584e-05 
6.000000e-02  1.335159994611015e-05 
6.500000e-02  1.325065065877626e-05 
7.000000e-02  1.320861754883439e-05 
7.500000e-02  1.318170525567343e-05 
8.000000e-02  1.315895345995196e-05 
8.500000e-02  1.313533812461076e-05 
9.000000e-02  1.310596663973020e-05 
9.500000e-02  1.306155725629500e-05 
1.000000e-01  1.297438195420899e-05 
1.050000e-01  1.271714743710720e-05 
1.100000e-01  1.157623413658078e-05 
1.150000e-01  1.042798703766499e-05 
1.200000e-01  1.015946338132729e-05 
1.250000e-01  1.005898808946974e-05 
1.300000e-01  9.999073639780597e-06 
1.350000e-01  9.950813650593815e-06 
1.400000e-01  9.902595436030861e-06 
1.450000e-01  9.844746949412703e-06 
1.500000e-01  9.760875702415306e-06 
1.550000e-01  9.605865809586749e-06 
1.600000e-01  9.189098852657230e-06 
1.650000e-01  7.458307829232130e-06 
1.700000e-01  3.883529407811396e-06 
1.750000e-01  3.895114043817272e-07 
1.800000e-01  -2.736164593409880e-06 
1.850000e-01  -3.570082767938189e-06 
1.900000e-01  -3.806449699577198e-06 
1.950000e-01  -3.907101206306395e-06 
2.000000e-01  -3.962129658989075e-06 
2.050000e-01  -3.996665507611203e-06 
2.100000e-01  -4.019682993926230e-06 
2.150000e-01  -4.034154252195299e-06 
2.200000e-01  -4.038427871897465e-06 
2.250000e-01  -4.018861942280378e-06 
2.300000e-01  -3.896189585656461e-06 
2.350000e-01  -3.460765204940154e-06 
2.400000e-01  -3.005609344236864e-06 
2.450000e-01  -2.552895946220538e-06 
2.500000e-01  -2.102858689644239e-06 
2.550000e-01  -1.633695157481389e-06 
2.600000e-01  -1.377485051764890e-06 
2.650000e-01  -1.316157402183079e-06 
2.700000e-01  -1.293379876055016e-06 
2.750000e-01  -1.280591841816212e-06 
2.800000e-01  -1.271167398255079e-06 
2.850000e-01  -1.262599024418866e-06 
2.900000e-01  -1.253144375281480e-06 
2.950000e-01  -1.240247013707362e-06 
3.000000e-01  -1.217032267685599e-06 
3.050000e-01  -1.153302099405836e-06 
3.100000e-01  -8.851427876824868e-07 
3.150000e-01  -4.240816678199170e-07 
3.200000e-01  1.806066447365276e-08 
3.250000e-01  4.637528855582202e-07 
3.300000e-01  9.058949744912315e-07 
3.350000e-01  1.366923893223348e-06 
3.400000e-01  1.615844045999955e-06 
3.450000e-01  1.675661474251558e-06 
3.500000e-01  1.698079902338831e-06 
3.550000e-01  1.710798288211765e-06 
3.600000e-01  1.720281677910675e-06 
3.650000e-01  1.729011396313676e-06 
3.700000e-01  1.738763487598395e-06 
3.750000e-01  1.752219498780095e-06 
3.800000e-01  1.776685073982045e-06 
3.850000e-01  1.844430041717845e-06 
3.900000e-01  2.130320690127368e-06 
3.950000e-01  2.616503877497463e-06 
4.000000e-01  3.082877069314878e-06 
4.050000e-01  3.552486361813143e-06 
4.100000e-01  4.021596212831600e-06 
4.150000e-01  4.490786575891477e-06 
4.200000e-01  4.959966955039561e-06 
4.250000e-01  5.429149593063218e-06 
4.300000e-01  5.898343911750549e-06 
4.350000e-01  6.367475101462495e-06 
4.400000e-01  6.837023196084012e-06 
4.450000e-01  7.303899080306489e-06 
4.500000e-01  7.787270007284784e-06 
4.550000e-01  8.130039940982825e-06 
4.600000e-01  8.208525332525914e-06 
4.650000e-01  8.231729549162834e-06 
4.700000e-01  8.241038754946619e-06 
4.750000e-01  8.244913138330862e-06 
4.800000e-01  8.245624439847945e-06 
4.850000e-01  8.243462886767198e-06 
4.900000e-01  8.237132038668770e-06 
4.950000e-01  8.221604820141107e-06 
5.000000e-01  8.174955417630661e-06 
5.050000e-01  7.975175934728292e-06 
5.100000e-01  7.506245042487475e-06 
5.150000e-01  7.051245597124770e-06 
5.200000e-01  6.594000799019534e-06 
5.250000e-01  6.137101657728347e-06 
5.300000e-01  5.680145348898005e-06 
5.350000e-01  5.223195090079060e-06 
5.400000e-01  4.766240899520821e-06 
5.450000e-01  4.309286659586768e-06 
5.500000e-01  3.852318506093722e-06 
5.550000e-01  3.395425125936849e-06 
5.600000e-01  2.938040810989770e-06 
5.650000e-01  2.483810219253732e-06 
5.700000e-01  2.010246278018727e-06 
5.750000e-01  1.755321941743199e-06 
5.800000e-01  1.696090867425455e-06 
5.850000e-01  1.675718635522717e-06 
5.900000e-01  1.665752583814554e-06 
5.950000e-01  1.659798176569430e-06 
6.000000e-01  1.655798908854980e-06 
6.050000e-01  1.652953151390546e-06 
6.100000e-01  1.650998043451975e-06 
6.150000e-01  1.650210742311635e-06 
6.200000e-01  1.652790658577074e-06 
6.250000e-01  1.671494052508058e-06 
6.300000e-01  1.705203650537966e-06 
6.350000e-01  1.737535938401171e-06 
6.400000e-01  1.770095618945008e-06 
6.450000e-01  1.802616007967286e-06 
6.500000e-01  1.835177483633577e-06 
6.550000e-01  1.867515491634169e-06 
6.600000e-01  1.901224273509141e-06 
6.650000e-01  1.921500361643074e-06 
6.700000e-01  1.926911295057757e-06 
6.750000e-01  1.929427813415330e-06 
6.800000e-01  1.931311139172016e-06 
6.850000e-01  1.933144907222506e-06 
6.900000e-01  1.935262614736771e-06 
6.950000e-01  1.938090494677554e-06 
7.000000e-01  1.942529923970224e-06 
7.050000e-01  1.951264775251106e-06 
7.100000e-01  1.976115951562113e-06 
7.150000e-01  2.082192780961579e-06 
7.200000e-01  2.280491745890959e-06 
7.250000e-01  2.470712780735782e-06 
7.300000e-01  2.662252648392524e-06 
7.350000e-01  2.853589566469002e-06 
7.400000e-01  3.044954953724625e-06 
7.450000e-01  3.236345573652842e-06 
7.500000e-01  3.427552500731773e-06 
7.550000e-01  3.619942232226058e-06 
7.600000e-01  3.804389905888648e-06 
7.650000e-01  3.858731357530128e-06 
7.700000e-01  3.870455258387654e-06 
7.750000e-01  3.872622642998274e-06 
7.800000e-01  3.871198124407650e-06 
7.850000e-01  3.867347514989808e-06 
7.900000e-01  3.860729705837953e-06 
7.950000e-01  3.849554647077448e-06 
8.000000e-01  3.828510010066955e-06 
8.050000e-01  3.778358897846298e-06 
8.100000e-01  3.600343650419165e-06 
8.150000e-01  2.931343079059941e-06 
8.200000e-01  2.177658757208501e-06 
8.250000e-01  1.435816123667063e-06 
8.300000e-01  6.922240831039534e-07 
8.350000e-01  -5.185834923570340e-08 
8.400000e-01  -7.908668656935296e-07 
8.450000e-01  -1.561179640969473e-06 
8.500000e-01  -1.969950746165209e-06 
8.550000e-01  -2.064146576934890e-06 
8.600000e-01  -2.095792602962567e-06 
8.650000e-01  -2.110471444976549e-06 
8.700000e-01  -2.118350262263788e-06 
8.750000e-01  -2.122513628327282e-06 
8.800000e-01  -2.123775358166587e-06 
8.850000e-01  -2.121386826471100e-06 
8.900000e-01  -2.111224146021475e-06 
8.950000e-01  -2.072972047714088e-06 
9.000000e-01  -1.895055954505942e-06 
9.050000e-01  -1.591820382371356e-06 
9.100000e-01  -1.300920665357320e-06 
9.150000e-01  -1.007929677119180e-06 
9.200000e-01  -7.157483747585385e-07 
9.250000e-01  -4.203616710755181e-07 
9.300000e-01  -1.467223561312114e-07 
9.350000e-01  -6.884939802662126e-08 
9.400000e-01  -4.724393950562708e-08 
9.450000e-01  -3.812663175222990e-08 
9.500000e-01  -3.307361881658483e-08 
9.550000e-01  -2.976840423182901e-08 
9.600000e-01  -2.735132477774930e-08 
9.650000e-01  -2.543467282738006e-08 
9.700000e-01  -2.382365499588539e-08 
9.750000e-01  -2.244230598788756e-08 
9.800000e-01  -2.149028082002255e-08 
9.850000e-01  -2.136379365967927e-08 
9.900000e-01  -2.137655265949404e-08 
9.950000e-01  -2.137595883970702e-08 
1.000000e+00  -2.137671756241684e-08 
