TITLE ="t=603.288398" 
VARIABLES = "x"                 "mu" 
ZONE I=201, ZONETYPE=Ordered, DATAPACKING=POINT
0.000000e+00  1.380021857393586e-05 
5.000000e-03  1.379885951107789e-05 
1.000000e-02  1.379566996406691e-05 
1.500000e-02  1.379172822991362e-05 
2.000000e-02  1.378709758266477e-05 
2.500000e-02  1.378144703863754e-05 
3.000000e-02  1.377408533122164e-05 
3.500000e-02  1.376358665376502e-05 
4.000000e-02  1.374655768383260e-05 
4.500000e-02  1.371280504909750e-05 
5.000000e-02  1.361846769655942e-05 
5.500000e-02  1.320349743616303e-05 
6.000000e-02  1.277774588093015e-05 
6.500000e-02  1.267458162702350e-05 
7.000000e-02  1.263163973904492e-05 
7.500000e-02  1.260410920411141e-05 
8.000000e-02  1.258079117753639e-05 
8.500000e-02  1.255654663886949e-05 
9.000000e-02  1.252635633753425e-05 
9.500000e-02  1.248068730961148e-05 
1.000000e-01  1.239108719595043e-05 
1.050000e-01  1.212715772077061e-05 
1.100000e-01  1.095537245434676e-05 
1.150000e-01  9.784179864116568e-06 
1.200000e-01  9.510250425245980e-06 
1.250000e-01  9.407139990464860e-06 
1.300000e-01  9.345379153178878e-06 
1.350000e-01  9.295469956635548e-06 
1.400000e-01  9.245473721067905e-06 
1.450000e-01  9.185350333988012e-06 
1.500000e-01  9.097960610270348e-06 
1.550000e-01  8.935907868985659e-06 
1.600000e-01  8.497938342522690e-06 
1.650000e-01  6.672994139191400e-06 
1.700000e-01  2.964641777445932e-06 
1.750000e-01  -6.635897706249075e-07 
1.800000e-01  -3.859525769651528e-06 
1.850000e-01  -4.696005739463980e-06 
1.900000e-01  -4.934740805653433e-06 
1.950000e-01  -5.036639425295649e-06 
2.000000e-01  -5.092032122803356e-06 
2.050000e-01  -5.126213826248560e-06 
2.100000e-01  -5.148064326664469e-06 
2.150000e-01  -5.160059842770620e-06 
2.200000e-01  -5.158953720004903e-06 
2.250000e-01  -5.124756217301871e-06 
2.300000e-01  -4.943816950239136e-06 
2.350000e-01  -4.333319971092437e-06 
2.400000e-01  -3.701998606810784e-06 
2.450000e-01  -3.073136995868930e-06 
2.500000e-01  -2.448135672234323e-06 
2.550000e-01  -1.796550525585498e-06 
2.600000e-01  -1.441332609957831e-06 
2.650000e-01  -1.356956371833048e-06 
2.700000e-01  -1.326208349697668e-06 
2.750000e-01  -1.309468059944364e-06 
2.800000e-01  -1.297621336185317e-06 
2.850000e-01  -1.287348207821663e-06 
2.900000e-01  -1.276562879535503e-06 
2.950000e-01  -1.262526052495202e-06 
3.000000e-01  -1.238216038301019e-06 
3.050000e-01  -1.173127493933847e-06 
3.100000e-01  -9.019943177546970e-07 
3.150000e-01  -4.367362344850309e-07 
3.200000e-01  9.433938452322824e-09 
3.250000e-01  4.591852576278459e-07 
3.300000e-01  9.053541392242052e-07 
3.350000e-01  1.370580591793239e-06 
3.400000e-01  1.621689550378802e-06 
3.450000e-01  1.681980391368388e-06 
3.500000e-01  1.704528694812703e-06 
3.550000e-01  1.717278442313437e-06 
3.600000e-01  1.726745688702073e-06 
3.650000e-01  1.735420794493381e-06 
3.700000e-01  1.745068359243689e-06 
3.750000e-01  1.758327323378543e-06 
3.800000e-01  1.782360879524502e-06 
3.850000e-01  1.848784921425463e-06 
3.900000e-01  2.128894367947009e-06 
3.950000e-01  2.605118187918230e-06 
4.000000e-01  3.061938791470249e-06 
4.050000e-01  3.521928918787667e-06 
4.100000e-01  3.981429768451096e-06 
4.150000e-01  4.441009376495442e-06 
4.200000e-01  4.900579106591253e-06 
4.250000e-01  5.360150928567113e-06 
4.300000e-01  5.819734189033744e-06 
4.350000e-01  6.279254838359721e-06 
4.400000e-01  6.739187996596082e-06 
4.450000e-01  7.196476008454111e-06 
4.500000e-01  7.670085145851000e-06 
4.550000e-01  8.003906181077199e-06 
4.600000e-01  8.080268645421584e-06 
4.650000e-01  8.102925381505503e-06 
4.700000e-01  8.112061621875211e-06 
4.750000e-01  8.115908136688683e-06 
4.800000e-01  8.116683387215301e-06 
4.850000e-01  8.114681764177782e-06 
4.900000e-01  8.108664292305862e-06 
4.950000e-01  8.093794518772536e-06 
5.000000e-01  8.048914221194601e-06 
5.050000e-01  7.856212558548615e-06 
5.100000e-01  7.407410404521278e-06 
5.150000e-01  6.972265671343583e-06 
5.200000e-01  6.534917995778719e-06 
5.250000e-01  6.097909503655556e-06 
5.300000e-01  5.660845013672000e-06 
5.350000e-01  5.223786543277159e-06 
5.400000e-01  4.786724308228980e-06 
5.450000e-01  4.349662061331687e-06 
5.500000e-01  3.912586556567133e-06 
5.550000e-01  3.475582521147197e-06 
5.600000e-01  3.038109542044797e-06 
5.650000e-01  2.603649320716317e-06 
5.700000e-01  2.150719078073405e-06 
5.750000e-01  1.907872260255338e-06 
5.800000e-01  1.851378485678260e-06 
5.850000e-01  1.831887055794168e-06 
5.900000e-01  1.822309726886402e-06 
5.950000e-01  1.816546976750844e-06 
6.000000e-01  1.812627512170092e-06 
6.050000e-01  1.809766221880225e-06 
6.100000e-01  1.807663277563891e-06 
6.150000e-01  1.806430880805712e-06 
6.200000e-01  1.807478363624604e-06 
6.250000e-01  1.819213764790407e-06 
6.300000e-01  1.840841283997266e-06 
6.350000e-01  1.861585056502858e-06 
6.400000e-01  1.882475304106294e-06 
6.450000e-01  1.903340686000206e-06 
6.500000e-01  1.924232735511796e-06 
6.550000e-01  1.944982020875913e-06 
6.600000e-01  1.966609816386501e-06 
6.650000e-01  1.979831733867307e-06 
6.700000e-01  1.983690984310894e-06 
6.750000e-01  1.985758960347726e-06 
6.800000e-01  1.987494255410302e-06 
6.850000e-01  1.989313177977933e-06 
6.900000e-01  1.991511348680348e-06 
6.950000e-01  1.994530306245131e-06 
7.000000e-01  1.999352836969325e-06 
7.050000e-01  2.008940210388514e-06 
7.100000e-01  2.036361338399800e-06 
7.150000e-01  2.153639158962733e-06 
7.200000e-01  2.373266239507129e-06 
7.250000e-01  2.583950820933038e-06 
7.300000e-01  2.796095242578183e-06 
7.350000e-01  3.008014835606428e-06 
7.400000e-01  3.219966070456711e-06 
7.450000e-01  3.431943250694064e-06 
7.500000e-01  3.643728425012678e-06 
7.550000e-01  3.856749852415697e-06 
7.600000e-01  4.061495092405661e-06 
7.650000e-01  4.122482201879360e-06 
7.700000e-01  4.135985332283426e-06 
7.750000e-01  4.138898927562894e-06 
7.800000e-01  4.137908430983462e-06 
7.850000e-01  4.134374316080581e-06 
7.900000e-01  4.128036935392032e-06 
7.950000e-01  4.117168478444339e-06 
8.000000e-01  4.096564308865898e-06 
8.050000e-01  4.047359466663733e-06 
8.100000e-01  3.872779437530306e-06 
8.150000e-01  3.213510436835968e-06 
8.200000e-01  2.468116459831319e-06 
8.250000e-01  1.734729570135442e-06 
8.300000e-01  9.995649484973520e-07 
8.350000e-01  2.639204862766697e-07 
8.400000e-01  -4.666930378239756e-07 
8.450000e-01  -1.228347483901908e-06 
8.500000e-01  -1.636163846885485e-06 
8.550000e-01  -1.730164429352330e-06 
8.600000e-01  -1.761783130844934e-06 
8.650000e-01  -1.776543537640144e-06 
8.700000e-01  -1.784591246060447e-06 
8.750000e-01  -1.789026286079294e-06 
8.800000e-01  -1.790723972030681e-06 
8.850000e-01  -1.789104558866704e-06 
8.900000e-01  -1.780592310895163e-06 
8.950000e-01  -1.747420278515551e-06 
9.000000e-01  -1.591674318555173e-06 
9.050000e-01  -1.323666598019477e-06 
9.100000e-01  -1.066590750567373e-06 
9.150000e-01  -8.076620537570165e-07 
9.200000e-01  -5.494448610985935e-07 
9.250000e-01  -2.884235425805546e-07 
9.300000e-01  -4.640740642250034e-08 
9.350000e-01  2.257483977898400e-08 
9.400000e-01  4.170068287846360e-08 
9.450000e-01  4.976679178270024e-08 
9.500000e-01  5.423560016627579e-08 
9.550000e-01  5.715796698474696e-08 
9.600000e-01  5.929466418758690e-08 
9.650000e-01  6.098869475519709e-08 
9.700000e-01  6.241234479276231e-08 
9.750000e-01  6.363282916780294e-08 
9.800000e-01  6.447444480624853e-08 
9.850000e-01  6.458706993800292e-08 
9.900000e-01  6.457578614327603e-08 
9.950000e-01  6.457631771379949e-08 
1.000000e+00  6.457564732378811e-08 
