TITLE ="t=443.288398" 
VARIABLES = "x"                 "mu" 
ZONE I=201, ZONETYPE=Ordered, DATAPACKING=POINT
0.000000e+00  1.685025619722177e-05 
5.000000e-03  1.684864409451101e-05 
1.000000e-02  1.684468237886404e-05 
1.500000e-02  1.683973910633545e-05 
2.000000e-02  1.683392691175846e-05 
2.500000e-02  1.682684086731082e-05 
3.000000e-02  1.681762466057634e-05 
3.500000e-02  1.680451467799510e-05 
4.000000e-02  1.678333252662065e-05 
4.500000e-02  1.674161797833211e-05 
5.000000e-02  1.662631912846738e-05 
5.500000e-02  1.612339213059165e-05 
6.000000e-02  1.560697857252713e-05 
6.500000e-02  1.548194066576905e-05 
7.000000e-02  1.543041945330935e-05 
7.500000e-02  1.539810883746328e-05 
8.000000e-02  1.537143090210161e-05 
8.500000e-02  1.534433126049146e-05 
9.000000e-02  1.531119429519574e-05 
9.500000e-02  1.526164869730068e-05 
1.000000e-01  1.516480389399783e-05 
1.050000e-01  1.487811027212446e-05 
1.100000e-01  1.361351963402093e-05 
1.150000e-01  1.231752519840611e-05 
1.200000e-01  1.201700975562001e-05 
1.250000e-01  1.190981609003933e-05 
1.300000e-01  1.184937117652469e-05 
1.350000e-01  1.180333873309018e-05 
1.400000e-01  1.175964973816541e-05 
1.450000e-01  1.170950116299125e-05 
1.500000e-01  1.163942422040122e-05 
1.550000e-01  1.151392051096369e-05 
1.600000e-01  1.118646619132960e-05 
1.650000e-01  9.850419360829359e-06 
1.700000e-01  6.934908309192278e-06 
1.750000e-01  4.092010878981247e-06 
1.800000e-01  1.429468365693611e-06 
1.850000e-01  6.641123518478269e-07 
1.900000e-01  4.512978016902503e-07 
1.950000e-01  3.606069158657661e-07 
2.000000e-01  3.092517521076061e-07 
2.050000e-01  2.743453775280434e-07 
2.100000e-01  2.470463297548502e-07 
2.150000e-01  2.225746920605993e-07 
2.200000e-01  1.963361891817845e-07 
2.250000e-01  1.577981645375452e-07 
2.300000e-01  5.803054478683492e-08 
2.350000e-01  -2.639519653289786e-07 
2.400000e-01  -6.114850640419170e-07 
2.450000e-01  -9.556052011561020e-07 
2.500000e-01  -1.297950896471423e-06 
2.550000e-01  -1.654734625808969e-06 
2.600000e-01  -1.844168269156140e-06 
2.650000e-01  -1.886199763205693e-06 
2.700000e-01  -1.898801564020738e-06 
2.750000e-01  -1.903174663357922e-06 
2.800000e-01  -1.903849342589163e-06 
2.850000e-01  -1.901870270623170e-06 
2.900000e-01  -1.896809625725989e-06 
2.950000e-01  -1.886356474962349e-06 
3.000000e-01  -1.862460742862378e-06 
3.050000e-01  -1.787796321144605e-06 
3.100000e-01  -1.458835583167210e-06 
3.150000e-01  -8.989079031986653e-07 
3.200000e-01  -3.618612458115669e-07 
3.250000e-01  1.794822122091919e-07 
3.300000e-01  7.165161871806686e-07 
3.350000e-01  1.276491932839917e-06 
3.400000e-01  1.578783728517135e-06 
3.450000e-01  1.651164929970348e-06 
3.500000e-01  1.678056495231111e-06 
3.550000e-01  1.693108011830345e-06 
3.600000e-01  1.704141433683813e-06 
3.650000e-01  1.714107681865312e-06 
3.700000e-01  1.725032734680037e-06 
3.750000e-01  1.739853614319079e-06 
3.800000e-01  1.766443709103504e-06 
3.850000e-01  1.839451703600048e-06 
3.900000e-01  2.146540135376045e-06 
3.950000e-01  2.668718146325045e-06 
4.000000e-01  3.169617895569939e-06 
4.050000e-01  3.673993689027263e-06 
4.100000e-01  4.177833175972327e-06 
4.150000e-01  4.681759342045875e-06 
4.200000e-01  5.185675013703580e-06 
4.250000e-01  5.689593487132615e-06 
4.300000e-01  6.193524285414759e-06 
4.350000e-01  6.697391214652486e-06 
4.400000e-01  7.201683626086071e-06 
4.450000e-01  7.703253491342172e-06 
4.500000e-01  8.221662941876513e-06 
4.550000e-01  8.599603952863554e-06 
4.600000e-01  8.686610437695774e-06 
4.650000e-01  8.711901846444273e-06 
4.700000e-01  8.721794687492337e-06 
4.750000e-01  8.725671617571626e-06 
4.800000e-01  8.726007007660064e-06 
4.850000e-01  8.723057589153352e-06 
4.900000e-01  8.715265167608053e-06 
4.950000e-01  8.696763644952700e-06 
5.000000e-01  8.642324297090475e-06 
5.050000e-01  8.412025570682433e-06 
5.100000e-01  7.851397699732846e-06 
5.150000e-01  7.305312401714104e-06 
5.200000e-01  6.756892763958606e-06 
5.250000e-01  6.208832101429274e-06 
5.300000e-01  5.660711456886837e-06 
5.350000e-01  5.112596593884989e-06 
5.400000e-01  4.564477086198433e-06 
5.450000e-01  4.016357337272607e-06 
5.500000e-01  3.468220661808352e-06 
5.550000e-01  2.920173883777805e-06 
5.600000e-01  2.371535420717344e-06 
5.650000e-01  1.826696406752614e-06 
5.700000e-01  1.258569703099901e-06 
5.750000e-01  9.463425532208400e-07 
5.800000e-01  8.742804833977199e-07 
5.850000e-01  8.499352258920233e-07 
5.900000e-01  8.383402367997642e-07 
5.950000e-01  8.317189802232210e-07 
6.000000e-01  8.276422527212610e-07 
6.050000e-01  8.252888216355324e-07 
6.100000e-01  8.247081875896190e-07 
6.150000e-01  8.273776724997973e-07 
6.200000e-01  8.411005836845289e-07 
6.250000e-01  9.095021441550169e-07 
6.300000e-01  1.031063091816238e-06 
6.350000e-01  1.147643597985154e-06 
6.400000e-01  1.265042275012621e-06 
6.450000e-01  1.382296460582678e-06 
6.500000e-01  1.499696702374824e-06 
6.550000e-01  1.616286946067573e-06 
6.600000e-01  1.737826863163581e-06 
6.650000e-01  1.809447316406746e-06 
6.700000e-01  1.826323664046767e-06 
6.750000e-01  1.832328075131132e-06 
6.800000e-01  1.835553698124813e-06 
6.850000e-01  1.837820327935923e-06 
6.900000e-01  1.839777418913462e-06 
6.950000e-01  1.841823822391328e-06 
7.000000e-01  1.844470151721810e-06 
7.050000e-01  1.848994773320865e-06 
7.100000e-01  1.860818547513632e-06 
7.150000e-01  1.909587259616965e-06 
7.200000e-01  2.000064864413959e-06 
7.250000e-01  2.086853220973391e-06 
7.300000e-01  2.174244238134225e-06 
7.350000e-01  2.261543038610025e-06 
7.400000e-01  2.348854859561842e-06 
7.450000e-01  2.436182465457369e-06 
7.500000e-01  2.523404396622958e-06 
7.550000e-01  2.611309527276817e-06 
7.600000e-01  2.694538387943135e-06 
7.650000e-01  2.716999978248694e-06 
7.700000e-01  2.720024343610939e-06 
7.750000e-01  2.718460589515647e-06 
7.800000e-01  2.714819722920675e-06 
7.850000e-01  2.709316455483895e-06 
7.900000e-01  2.701199167151053e-06 
7.950000e-01  2.688347363866330e-06 
8.000000e-01  2.664856669235620e-06 
8.050000e-01  2.609448465222678e-06 
8.100000e-01  2.412560595562885e-06 
8.150000e-01  1.688059652282593e-06 
8.200000e-01  8.836062298759585e-07 
8.250000e-01  9.047161239655426e-08 
8.300000e-01  -7.043196441981490e-07 
8.350000e-01  -1.499648001331588e-06 
8.400000e-01  -2.289678200160575e-06 
8.450000e-01  -3.112407129034315e-06 
8.500000e-01  -3.530371689451999e-06 
8.550000e-01  -3.626733424837353e-06 
8.600000e-01  -3.659017155996183e-06 
8.650000e-01  -3.673617181765983e-06 
8.700000e-01  -3.680936088466355e-06 
8.750000e-01  -3.684039489846455e-06 
8.800000e-01  -3.683489791247315e-06 
8.850000e-01  -3.677794542517876e-06 
8.900000e-01  -3.660359219570574e-06 
8.950000e-01  -3.599200998712147e-06 
9.000000e-01  -3.321126584728365e-06 
9.050000e-01  -2.866967005629273e-06 
9.100000e-01  -2.430943293192907e-06 
9.150000e-01  -1.991839892104280e-06 
9.200000e-01  -1.553987242248066e-06 
9.250000e-01  -1.111050219782151e-06 
9.300000e-01  -7.028086957850775e-07 
9.350000e-01  -5.876619206983862e-07 
9.400000e-01  -5.555912869539435e-07 
9.450000e-01  -5.420115690402840e-07 
9.500000e-01  -5.344699312540655e-07 
9.550000e-01  -5.295299891869025e-07 
9.600000e-01  -5.259134975488920e-07 
9.650000e-01  -5.230429612126339e-07 
9.700000e-01  -5.206277812803749e-07 
9.750000e-01  -5.185548826615700e-07 
9.800000e-01  -5.171306870879868e-07 
9.850000e-01  -5.169491668216928e-07 
9.900000e-01  -5.169681767099008e-07 
9.950000e-01  -5.169673372159324e-07 
1.000000e+00  -5.169684700212967e-07 
