TITLE ="t=13.288398" 
VARIABLES = "x"                 "mu" 
ZONE I=201, ZONETYPE=Ordered, DATAPACKING=POINT
0.000000e+00  -1.479867571290047e-05 
5.000000e-03  -1.479266149097066e-05 
1.000000e-02  -1.477529488431814e-05 
1.500000e-02  -1.475286792931319e-05 
2.000000e-02  -1.472642008379358e-05 
2.500000e-02  -1.469427087027546e-05 
3.000000e-02  -1.465269450068548e-05 
3.500000e-02  -1.459405495538243e-05 
4.000000e-02  -1.450054711064762e-05 
4.500000e-02  -1.432051944639870e-05 
5.000000e-02  -1.384484462470195e-05 
5.500000e-02  -1.204869318554240e-05 
6.000000e-02  -1.084540734890754e-05 
6.500000e-02  -1.051203856961722e-05 
7.000000e-02  -1.037550018926730e-05 
7.500000e-02  -1.030433449551804e-05 
8.000000e-02  -1.026299422410238e-05 
8.500000e-02  -1.023968618267838e-05 
9.000000e-02  -1.023219061346405e-05 
9.500000e-02  -1.024795822121795e-05 
1.000000e-01  -1.032418488206727e-05 
1.050000e-01  -1.066366085668632e-05 
1.100000e-01  -1.191745823832952e-05 
1.150000e-01  -1.240919398005073e-05 
1.200000e-01  -1.252280640603993e-05 
1.250000e-01  -1.255808241475797e-05 
1.300000e-01  -1.256840386382390e-05 
1.350000e-01  -1.256588441064069e-05 
1.400000e-01  -1.255256280825556e-05 
1.450000e-01  -1.252476293441912e-05 
1.500000e-01  -1.246885245199245e-05 
1.550000e-01  -1.233596988172736e-05 
1.600000e-01  -1.188277244753339e-05 
1.650000e-01  -9.993714389733488e-06 
1.700000e-01  -7.603147868321532e-06 
1.750000e-01  -5.244975076804701e-06 
1.800000e-01  -3.103683829556969e-06 
1.850000e-01  -2.521509849119500e-06 
1.900000e-01  -2.361524512804074e-06 
1.950000e-01  -2.297039820609272e-06 
2.000000e-01  -2.265045989045231e-06 
2.050000e-01  -2.248650004269044e-06 
2.100000e-01  -2.242810017028903e-06 
2.150000e-01  -2.248068029782754e-06 
2.200000e-01  -2.272591563533907e-06 
2.250000e-01  -2.351636387753537e-06 
2.300000e-01  -2.675059193314703e-06 
2.350000e-01  -3.786975945437438e-06 
2.400000e-01  -4.961753004763465e-06 
2.450000e-01  -6.127781328673584e-06 
2.500000e-01  -7.291711264592434e-06 
2.550000e-01  -8.477695681354134e-06 
2.600000e-01  -8.935291092884257e-06 
2.650000e-01  -9.040571345398684e-06 
2.700000e-01  -9.072812809802915e-06 
2.750000e-01  -9.082163913132676e-06 
2.800000e-01  -9.079882577227966e-06 
2.850000e-01  -9.067918496413065e-06 
2.900000e-01  -9.043095116540695e-06 
2.950000e-01  -8.993538254043238e-06 
3.000000e-01  -8.877104677042668e-06 
3.050000e-01  -8.486032235103050e-06 
3.100000e-01  -6.828415475560614e-06 
3.150000e-01  -4.646290520652618e-06 
3.200000e-01  -2.529528882030705e-06 
3.250000e-01  -4.002346481149821e-07 
3.300000e-01  1.713820419954463e-06 
3.350000e-01  3.911437051448739e-06 
3.400000e-01  4.975127188030357e-06 
3.450000e-01  5.227938147346727e-06 
3.500000e-01  5.319002651613716e-06 
3.550000e-01  5.365639163359793e-06 
3.600000e-01  5.395189968390280e-06 
3.650000e-01  5.416929883398270e-06 
3.700000e-01  5.435128086682475e-06 
3.750000e-01  5.452788096094531e-06 
3.800000e-01  5.474500043519153e-06 
3.850000e-01  5.517371106185545e-06 
3.900000e-01  5.669320077821994e-06 
3.950000e-01  5.898785944803803e-06 
4.000000e-01  6.119455948092542e-06 
4.050000e-01  6.341551635464999e-06 
4.100000e-01  6.563423684919716e-06 
4.150000e-01  6.785329023986178e-06 
4.200000e-01  7.007228174771641e-06 
4.250000e-01  7.229127217414257e-06 
4.300000e-01  7.451029714966091e-06 
4.350000e-01  7.672909809135453e-06 
4.400000e-01  7.894936625009147e-06 
4.450000e-01  8.116025632534840e-06 
4.500000e-01  8.342953896106903e-06 
4.550000e-01  8.524099965241444e-06 
4.600000e-01  8.565349116323937e-06 
4.650000e-01  8.574410857875126e-06 
4.700000e-01  8.575333728128537e-06 
4.750000e-01  8.572611513660676e-06 
4.800000e-01  8.566962608264995e-06 
4.850000e-01  8.557518229463760e-06 
4.900000e-01  8.541268972453824e-06 
4.950000e-01  8.509056990869461e-06 
5.000000e-01  8.424234419235135e-06 
5.050000e-01  8.087692475773497e-06 
5.100000e-01  7.154701978545383e-06 
5.150000e-01  6.226818615940508e-06 
5.200000e-01  5.298124997395683e-06 
5.250000e-01  4.369548381831485e-06 
5.300000e-01  3.440944230156120e-06 
5.350000e-01  2.512335469053605e-06 
5.400000e-01  1.583718173904252e-06 
5.450000e-01  6.550973802947354e-07 
5.500000e-01  -2.735534695362568e-07 
5.550000e-01  -1.202062334949732e-06 
5.600000e-01  -2.131526844762416e-06 
5.650000e-01  -3.054877031978458e-06 
5.700000e-01  -4.015781069038507e-06 
5.750000e-01  -4.623139796019770e-06 
5.800000e-01  -4.759097264209140e-06 
5.850000e-01  -4.799765350824008e-06 
5.900000e-01  -4.815441100660361e-06 
5.950000e-01  -4.820780605232903e-06 
6.000000e-01  -4.819564508483519e-06 
6.050000e-01  -4.811699362579484e-06 
6.100000e-01  -4.793271181989051e-06 
6.150000e-01  -4.750138842788864e-06 
6.200000e-01  -4.619097468606970e-06 
6.250000e-01  -4.048200406095085e-06 
6.300000e-01  -2.884579664573528e-06 
6.350000e-01  -1.765938643061746e-06 
6.400000e-01  -6.399316027716809e-07 
6.450000e-01  4.847754265406421e-07 
6.500000e-01  1.610822333139925e-06 
6.550000e-01  2.729457264623405e-06 
6.600000e-01  3.893507214647165e-06 
6.650000e-01  4.632344565159187e-06 
6.700000e-01  4.800819338207240e-06 
6.750000e-01  4.854277590367710e-06 
6.800000e-01  4.878096118962678e-06 
6.850000e-01  4.890427332127818e-06 
6.900000e-01  4.896586090665599e-06 
6.950000e-01  4.897954183468930e-06 
7.000000e-01  4.893351005810636e-06 
7.050000e-01  4.876394434024447e-06 
7.100000e-01  4.817078946026318e-06 
7.150000e-01  4.546813269826396e-06 
7.200000e-01  3.990972039665685e-06 
7.250000e-01  3.456547189538784e-06 
7.300000e-01  2.918632806078968e-06 
7.350000e-01  2.381249870810194e-06 
7.400000e-01  1.843800830746306e-06 
7.450000e-01  1.306210700630045e-06 
7.500000e-01  7.695760149910228e-07 
7.550000e-01  2.268519314987578e-07 
7.600000e-01  -2.739702813133592e-07 
7.650000e-01  -4.184162283790212e-07 
7.700000e-01  -4.624546395009846e-07 
7.750000e-01  -4.846145860176659e-07 
7.800000e-01  -5.004266572800152e-07 
7.850000e-01  -5.147742734214299e-07 
7.900000e-01  -5.305615787868426e-07 
7.950000e-01  -5.514674865328931e-07 
8.000000e-01  -5.858757205231322e-07 
8.050000e-01  -6.632338927670905e-07 
8.100000e-01  -9.358432442773934e-07 
8.150000e-01  -1.878043015002833e-06 
8.200000e-01  -2.889105738906127e-06 
8.250000e-01  -3.890112017399474e-06 
8.300000e-01  -4.892580791281676e-06 
8.350000e-01  -5.895507589621863e-06 
8.400000e-01  -6.893838959177002e-06 
8.450000e-01  -7.920919707906433e-06 
8.500000e-01  -8.351639130448989e-06 
8.550000e-01  -8.453849507709588e-06 
8.600000e-01  -8.489194630874944e-06 
8.650000e-01  -8.504873082077017e-06 
8.700000e-01  -8.511912690995292e-06 
8.750000e-01  -8.513436672836457e-06 
8.800000e-01  -8.509470715766312e-06 
8.850000e-01  -8.496712504096587e-06 
8.900000e-01  -8.462059815142788e-06 
8.950000e-01  -8.340612449587503e-06 
9.000000e-01  -7.807523533932303e-06 
9.050000e-01  -7.065249248121678e-06 
9.100000e-01  -6.347782265156033e-06 
9.150000e-01  -5.626038258794781e-06 
9.200000e-01  -4.906652215482433e-06 
9.250000e-01  -4.176263986356729e-06 
9.300000e-01  -3.523342467327066e-06 
9.350000e-01  -3.347456703875470e-06 
9.400000e-01  -3.297417941972036e-06 
9.450000e-01  -3.275837320749213e-06 
9.500000e-01  -3.263718489072397e-06 
9.550000e-01  -3.255719951588973e-06 
9.600000e-01  -3.249829443933547e-06 
9.650000e-01  -3.245129101519811e-06 
9.700000e-01  -3.241152930370671e-06 
9.750000e-01  -3.237721325807831e-06 
9.800000e-01  -3.235403210334556e-06 
9.850000e-01  -3.235171405986300e-06 
9.900000e-01  -3.235200915368607e-06 
9.950000e-01  -3.235199785488658e-06 
1.000000e+00  -3.235201522030260e-06 
