TITLE ="t=663.288398" 
VARIABLES = "x"                 "mu" 
ZONE I=201, ZONETYPE=Ordered, DATAPACKING=POINT
0.000000e+00  1.262804784213138e-05 
5.000000e-03  1.262654719205551e-05 
1.000000e-02  1.262308200323519e-05 
1.500000e-02  1.261881438118284e-05 
2.000000e-02  1.261380270499684e-05 
2.500000e-02  1.260768546301607e-05 
3.000000e-02  1.259971097370917e-05 
3.500000e-02  1.258832801727557e-05 
4.000000e-02  1.256983875950388e-05 
4.500000e-02  1.253310549449793e-05 
5.000000e-02  1.243002148585614e-05 
5.500000e-02  1.197534456725176e-05 
6.000000e-02  1.150801281810430e-05 
6.500000e-02  1.139518304030678e-05 
7.000000e-02  1.134844078549688e-05 
7.500000e-02  1.131854508871384e-05 
8.000000e-02  1.129325422673843e-05 
8.500000e-02  1.126698121463908e-05 
9.000000e-02  1.123429876772502e-05 
9.500000e-02  1.118494121415920e-05 
1.000000e-01  1.108838749504269e-05 
1.050000e-01  1.080532148895449e-05 
1.100000e-01  9.546641978168692e-06 
1.150000e-01  8.306872937591662e-06 
1.200000e-01  8.017211761471463e-06 
1.250000e-01  7.907400955786922e-06 
1.300000e-01  7.841502021010705e-06 
1.350000e-01  7.788298847663942e-06 
1.400000e-01  7.735081041334381e-06 
1.450000e-01  7.671127345804693e-06 
1.500000e-01  7.578072704861855e-06 
1.550000e-01  7.404811550577273e-06 
1.600000e-01  6.932280791164899e-06 
1.650000e-01  4.951823615128837e-06 
1.700000e-01  1.061639660268849e-06 
1.750000e-01  -2.754791409370161e-06 
1.800000e-01  -5.992713012160793e-06 
1.850000e-01  -6.808715017922059e-06 
1.900000e-01  -7.045440516692935e-06 
1.950000e-01  -7.147224972454709e-06 
2.000000e-01  -7.202105153755617e-06 
2.050000e-01  -7.234967539071278e-06 
2.100000e-01  -7.254269959433335e-06 
2.150000e-01  -7.261461140152475e-06 
2.200000e-01  -7.250216948214984e-06 
2.250000e-01  -7.188061113891334e-06 
2.300000e-01  -6.892711422990559e-06 
2.350000e-01  -5.975558122766383e-06 
2.400000e-01  -5.045996670241275e-06 
2.450000e-01  -4.117360810895483e-06 
2.500000e-01  -3.194834420000421e-06 
2.550000e-01  -2.233042593477992e-06 
2.600000e-01  -1.711843375737008e-06 
2.650000e-01  -1.588672335874116e-06 
2.700000e-01  -1.544370726813812e-06 
2.750000e-01  -1.520817432644316e-06 
2.800000e-01  -1.504708585581464e-06 
2.850000e-01  -1.491334364397805e-06 
2.900000e-01  -1.477984603401859e-06 
2.950000e-01  -1.461500755710037e-06 
3.000000e-01  -1.434262745325586e-06 
3.050000e-01  -1.363624150332296e-06 
3.100000e-01  -1.073313392185608e-06 
3.150000e-01  -5.785656723958621e-07 
3.200000e-01  -1.040900417669592e-07 
3.250000e-01  3.741883855607650e-07 
3.300000e-01  8.486572775564002e-07 
3.350000e-01  1.343392255353438e-06 
3.400000e-01  1.610343106582638e-06 
3.450000e-01  1.674248584497122e-06 
3.500000e-01  1.697978462985153e-06 
3.550000e-01  1.711247408405305e-06 
3.600000e-01  1.720961461005703e-06 
3.650000e-01  1.729722877738763e-06 
3.700000e-01  1.739312615733490e-06 
3.750000e-01  1.752304177791867e-06 
3.800000e-01  1.775587802489662e-06 
3.850000e-01  1.839479746633134e-06 
3.900000e-01  2.108157053520202e-06 
3.950000e-01  2.564822016758032e-06 
4.000000e-01  3.002880191044790e-06 
4.050000e-01  3.443977491994428e-06 
4.100000e-01  3.884605379490169e-06 
4.150000e-01  4.325308561913115e-06 
4.200000e-01  4.766002049858525e-06 
4.250000e-01  5.206697289332090e-06 
4.300000e-01  5.647403459403922e-06 
4.350000e-01  6.088048176513553e-06 
4.400000e-01  6.529095849327210e-06 
4.450000e-01  6.967557505405184e-06 
4.500000e-01  7.421962943220631e-06 
4.550000e-01  7.738530424863765e-06 
4.600000e-01  7.810831962467957e-06 
4.650000e-01  7.832434843453626e-06 
4.700000e-01  7.841236332469992e-06 
4.750000e-01  7.845028534139109e-06 
4.800000e-01  7.845927951382656e-06 
4.850000e-01  7.844238002228346e-06 
4.900000e-01  7.838833364976235e-06 
4.950000e-01  7.825255650592491e-06 
5.000000e-01  7.783882691878691e-06 
5.050000e-01  7.605329201661622e-06 
5.100000e-01  7.195616571755909e-06 
5.150000e-01  6.798904337206295e-06 
5.200000e-01  6.400092101467296e-06 
5.250000e-01  6.001603285769583e-06 
5.300000e-01  5.603061237594577e-06 
5.350000e-01  5.204525067413196e-06 
5.400000e-01  4.805985464270724e-06 
5.450000e-01  4.407445916045280e-06 
5.500000e-01  4.008894373825881e-06 
5.550000e-01  3.610407909452074e-06 
5.600000e-01  3.211495010879841e-06 
5.650000e-01  2.815322349479472e-06 
5.700000e-01  2.402348864036270e-06 
5.750000e-01  2.182529419797545e-06 
5.800000e-01  2.131285955154945e-06 
5.850000e-01  2.113513965300839e-06 
5.900000e-01  2.104719774501379e-06 
5.950000e-01  2.099369905964110e-06 
6.000000e-01  2.095661780589609e-06 
6.050000e-01  2.092853477942956e-06 
6.100000e-01  2.090602133303195e-06 
6.150000e-01  2.088789801727877e-06 
6.200000e-01  2.087698294872411e-06 
6.250000e-01  2.089523012494470e-06 
6.300000e-01  2.094080554392331e-06 
6.350000e-01  2.098449929245702e-06 
6.400000e-01  2.102851736042690e-06 
6.450000e-01  2.107249010458809e-06 
6.500000e-01  2.111652602227941e-06 
6.550000e-01  2.116027399875147e-06 
6.600000e-01  2.120585675581021e-06 
6.650000e-01  2.123829127752625e-06 
6.700000e-01  2.125526733446123e-06 
6.750000e-01  2.127003950360082e-06 
6.800000e-01  2.128581475154134e-06 
6.850000e-01  2.130442459077232e-06 
6.900000e-01  2.132836732682398e-06 
6.950000e-01  2.136243649140604e-06 
7.000000e-01  2.141799835864197e-06 
7.050000e-01  2.152976139980053e-06 
7.100000e-01  2.185116880438712e-06 
7.150000e-01  2.322851966602833e-06 
7.200000e-01  2.581834734155915e-06 
7.250000e-01  2.830285797387373e-06 
7.300000e-01  3.080455794778701e-06 
7.350000e-01  3.330360685490825e-06 
7.400000e-01  3.580303193582430e-06 
7.450000e-01  3.830271728229875e-06 
7.500000e-01  4.080040560444327e-06 
7.550000e-01  4.331095470785248e-06 
7.600000e-01  4.573587759418449e-06 
7.650000e-01  4.647231825897992e-06 
7.700000e-01  4.664082834638060e-06 
7.750000e-01  4.668379225945142e-06 
7.800000e-01  4.668180376482103e-06 
7.850000e-01  4.665213117398242e-06 
7.900000e-01  4.659367652167966e-06 
7.950000e-01  4.649025779657365e-06 
8.000000e-01  4.629166508221024e-06 
8.050000e-01  4.581559982289403e-06 
8.100000e-01  4.412841717060661e-06 
8.150000e-01  3.769558310439450e-06 
8.200000e-01  3.036778373266847e-06 
8.250000e-01  2.316398449093397e-06 
8.300000e-01  1.594174602261425e-06 
8.350000e-01  8.714911042683462e-07 
8.400000e-01  1.537686142078067e-07 
8.450000e-01  -5.945705370737470e-07 
8.500000e-01  -1.002037359694960e-06 
8.550000e-01  -1.096036818231823e-06 
8.600000e-01  -1.127746312388976e-06 
8.650000e-01  -1.142743627831964e-06 
8.700000e-01  -1.151173155521440e-06 
8.750000e-01  -1.156179413237190e-06 
8.800000e-01  -1.158764496447632e-06 
8.850000e-01  -1.158682156628142e-06 
8.900000e-01  -1.153425297399856e-06 
8.950000e-01  -1.130154456063958e-06 
9.000000e-01  -1.017528980821757e-06 
9.050000e-01  -8.198630091443344e-07 
9.100000e-01  -6.302907770816937e-07 
9.150000e-01  -4.393470127242782e-07 
9.200000e-01  -2.489228066673537e-07 
9.250000e-01  -5.646509057133758e-08 
9.300000e-01  1.222345423371084e-07 
9.350000e-01  1.733018931613442e-07 
9.400000e-01  1.874450360438881e-07 
9.450000e-01  1.934039050241592e-07 
9.500000e-01  1.967033109903097e-07 
9.550000e-01  1.988600859888342e-07 
9.600000e-01  2.004365252829872e-07 
9.650000e-01  2.016860195225014e-07 
9.700000e-01  2.027357872513813e-07 
9.750000e-01  2.036354934141532e-07 
9.800000e-01  2.042564605883720e-07 
9.850000e-01  2.043405414938524e-07 
9.900000e-01  2.043322153665770e-07 
9.950000e-01  2.043326182120653e-07 
1.000000e+00  2.043321248958113e-07 
