TITLE ="t=213.288398" 
VARIABLES = "x"                 "mu" 
ZONE I=201, ZONETYPE=Ordered, DATAPACKING=POINT
0.000000e+00  2.509745772346925e-05 
5.000000e-03  2.509228599724287e-05 
1.000000e-02  2.507689676104358e-05 
1.500000e-02  2.505697221545901e-05 
2.000000e-02  2.503350929936553e-05 
2.500000e-02  2.500502661962759e-05 
3.000000e-02  2.496823419099392e-05 
3.500000e-02  2.491639748759774e-05 
4.000000e-02  2.483382261437210e-05 
4.500000e-02  2.467493023556105e-05 
5.000000e-02  2.425317037416119e-05 
5.500000e-02  2.248257322786689e-05 
6.000000e-02  2.050446410190736e-05 
6.500000e-02  2.002238692845663e-05 
7.000000e-02  1.982697550452352e-05 
7.500000e-02  1.970901789080801e-05 
8.000000e-02  1.961616599330478e-05 
8.500000e-02  1.952623347902461e-05 
9.000000e-02  1.942067335594658e-05 
9.500000e-02  1.926745780585959e-05 
1.000000e-01  1.897230592474316e-05 
1.050000e-01  1.809679069664531e-05 
1.100000e-01  1.426631110210514e-05 
1.150000e-01  1.070763882392555e-05 
1.200000e-01  9.905871266437941e-06 
1.250000e-01  9.637809019568078e-06 
1.300000e-01  9.504540933073946e-06 
1.350000e-01  9.419652503806633e-06 
1.400000e-01  9.354961559440473e-06 
1.450000e-01  9.296969564538822e-06 
1.500000e-01  9.234293336274748e-06 
1.550000e-01  9.145737713251799e-06 
1.600000e-01  8.951087849655740e-06 
1.650000e-01  8.217768152368488e-06 
1.700000e-01  6.728854260575584e-06 
1.750000e-01  5.286961846805572e-06 
1.800000e-01  3.899754497968870e-06 
1.850000e-01  3.474025064854692e-06 
1.900000e-01  3.352897782298748e-06 
1.950000e-01  3.297443775544910e-06 
2.000000e-01  3.261681786300204e-06 
2.050000e-01  3.232366735395898e-06 
2.100000e-01  3.203047115173502e-06 
2.150000e-01  3.167385639395724e-06 
2.200000e-01  3.112858304944416e-06 
2.250000e-01  2.998062949583188e-06 
2.300000e-01  2.613616346766536e-06 
2.350000e-01  1.202795271416205e-06 
2.400000e-01  -3.745974671407134e-07 
2.450000e-01  -1.929892788237106e-06 
2.500000e-01  -3.479321624850336e-06 
2.550000e-01  -5.087102624974465e-06 
2.600000e-01  -5.842129777578432e-06 
2.650000e-01  -6.016607616439079e-06 
2.700000e-01  -6.074600235904057e-06 
2.750000e-01  -6.099402754458014e-06 
2.800000e-01  -6.109842964969595e-06 
2.850000e-01  -6.111111800087820e-06 
2.900000e-01  -6.103180919892813e-06 
2.950000e-01  -6.080520511109391e-06 
3.000000e-01  -6.021784664125600e-06 
3.050000e-01  -5.823775415600127e-06 
3.100000e-01  -4.942518798833895e-06 
3.150000e-01  -3.599658249097475e-06 
3.200000e-01  -2.307750287103289e-06 
3.250000e-01  -1.006225614690294e-06 
3.300000e-01  2.851181927045377e-07 
3.350000e-01  1.631085818843149e-06 
3.400000e-01  2.338277227272896e-06 
3.450000e-01  2.505334511210846e-06 
3.500000e-01  2.565248064793019e-06 
3.550000e-01  2.596605671845145e-06 
3.600000e-01  2.617458736827927e-06 
3.650000e-01  2.634085248080700e-06 
3.700000e-01  2.649834562563696e-06 
3.750000e-01  2.668135844034609e-06 
3.800000e-01  2.696646327555018e-06 
3.850000e-01  2.767701287314563e-06 
3.900000e-01  3.054303220935291e-06 
3.950000e-01  3.527684636940635e-06 
4.000000e-01  3.981946367747572e-06 
4.050000e-01  4.439327083482079e-06 
4.100000e-01  4.896224427294587e-06 
4.150000e-01  5.353198073976083e-06 
4.200000e-01  5.810160984602906e-06 
4.250000e-01  6.267125524553146e-06 
4.300000e-01  6.724099354460308e-06 
4.350000e-01  7.181021593072579e-06 
4.400000e-01  7.638285297824909e-06 
4.450000e-01  8.093364943507070e-06 
4.500000e-01  8.562005176950742e-06 
4.550000e-01  8.921810579772140e-06 
4.600000e-01  9.005520940838973e-06 
4.650000e-01  9.028569365385818e-06 
4.700000e-01  9.036630564357524e-06 
4.750000e-01  9.038748989138237e-06 
4.800000e-01  9.037140363519898e-06 
4.850000e-01  9.031739914981197e-06 
4.900000e-01  9.020375818875626e-06 
4.950000e-01  8.995580423692685e-06 
5.000000e-01  8.926301655917636e-06 
5.050000e-01  8.641924581878624e-06 
5.100000e-01  7.898633662630137e-06 
5.150000e-01  7.167483845750501e-06 
5.200000e-01  6.434403112355338e-06 
5.250000e-01  5.701617384812500e-06 
5.300000e-01  4.968780014183236e-06 
5.350000e-01  4.235945526135681e-06 
5.400000e-01  3.503105169030504e-06 
5.450000e-01  2.770263976331262e-06 
5.500000e-01  2.037399836383928e-06 
5.550000e-01  1.304654916072913e-06 
5.600000e-01  5.711218589489764e-07 
5.650000e-01  -1.573540235219707e-07 
5.700000e-01  -9.168294590708903e-07 
5.750000e-01  -1.358767366179341e-06 
5.800000e-01  -1.459058909508971e-06 
5.850000e-01  -1.491192848574549e-06 
5.900000e-01  -1.505220746234094e-06 
5.950000e-01  -1.511956595865092e-06 
6.000000e-01  -1.514497330823084e-06 
6.050000e-01  -1.513387518486971e-06 
6.100000e-01  -1.507137956406192e-06 
6.150000e-01  -1.489378238139546e-06 
6.200000e-01  -1.430278182619296e-06 
6.250000e-01  -1.164081099223248e-06 
6.300000e-01  -6.678192762921343e-07 
6.350000e-01  -1.918236327853097e-07 
6.400000e-01  2.874968997946280e-07 
6.450000e-01  7.662288103761918e-07 
6.500000e-01  1.245551901035135e-06 
6.550000e-01  1.721591920238313e-06 
6.600000e-01  2.217692935043206e-06 
6.650000e-01  2.514686008045630e-06 
6.700000e-01  2.582537942435642e-06 
6.750000e-01  2.604606624153586e-06 
6.800000e-01  2.614695103141739e-06 
6.850000e-01  2.620117648793265e-06 
6.900000e-01  2.623067119664440e-06 
6.950000e-01  2.624169476462512e-06 
7.000000e-01  2.623074957545310e-06 
7.050000e-01  2.617533339819407e-06 
7.100000e-01  2.596621464138817e-06 
7.150000e-01  2.499039801719414e-06 
7.200000e-01  2.310744779075269e-06 
7.250000e-01  2.130057727808026e-06 
7.300000e-01  1.948128785052002e-06 
7.350000e-01  1.766390443971405e-06 
7.400000e-01  1.584628282864375e-06 
7.450000e-01  1.402827940604819e-06 
7.500000e-01  1.221302155439418e-06 
7.550000e-01  1.038032069718445e-06 
7.600000e-01  8.665562876098862e-07 
7.650000e-01  8.141937537415619e-07 
7.700000e-01  7.962220349930686e-07 
7.750000e-01  7.854335332352839e-07 
7.800000e-01  7.762483181748529e-07 
7.850000e-01  7.665956046147689e-07 
7.900000e-01  7.547245121417491e-07 
7.950000e-01  7.377141088930669e-07 
8.000000e-01  7.082491483610571e-07 
8.050000e-01  6.402454564783023e-07 
8.100000e-01  3.988833900831614e-07 
8.150000e-01  -4.574618404729670e-07 
8.200000e-01  -1.388138856609326e-06 
8.250000e-01  -2.308091266992775e-06 
8.300000e-01  -3.229594892289036e-06 
8.350000e-01  -4.151674097004666e-06 
8.400000e-01  -5.068291400731162e-06 
8.450000e-01  -6.018760472552033e-06 
8.500000e-01  -6.457285028534371e-06 
8.550000e-01  -6.559388281746929e-06 
8.600000e-01  -6.593893399247928e-06 
8.650000e-01  -6.609102821822360e-06 
8.700000e-01  -6.616038627070113e-06 
8.750000e-01  -6.617835514547138e-06 
8.800000e-01  -6.614685988215557e-06 
8.850000e-01  -6.603860196587180e-06 
8.900000e-01  -6.574442832839840e-06 
8.950000e-01  -6.473214372837337e-06 
9.000000e-01  -6.021479556930203e-06 
9.050000e-01  -5.343197126281502e-06 
9.100000e-01  -4.690155758013297e-06 
9.150000e-01  -4.032802570783391e-06 
9.200000e-01  -3.377459324157353e-06 
9.250000e-01  -2.713360097694367e-06 
9.300000e-01  -2.109921571589855e-06 
9.350000e-01  -1.943568071015941e-06 
9.400000e-01  -1.896757052710304e-06 
9.450000e-01  -1.876757414238266e-06 
9.500000e-01  -1.865590157859546e-06 
9.550000e-01  -1.858248289951575e-06 
9.600000e-01  -1.852857808479114e-06 
9.650000e-01  -1.848568123625196e-06 
9.700000e-01  -1.844949391526160e-06 
9.750000e-01  -1.841835204627475e-06 
9.800000e-01  -1.839713017274888e-06 
9.850000e-01  -1.839471682983696e-06 
9.900000e-01  -1.839499501087691e-06 
9.950000e-01  -1.839498383377647e-06 
1.000000e+00  -1.839500037273723e-06 
