TITLE ="t=0.001024" 
VARIABLES = "x"                 "mu" 
ZONE I=201, ZONETYPE=Ordered, DATAPACKING=POINT
0.000000e+00  -4.325551456033236e-04 
5.000000e-03  -6.549998719263504e-04 
1.000000e-02  -1.200724769179962e-03 
1.500000e-02  -1.763221288303481e-03 
2.000000e-02  -1.997334767129448e-03 
2.500000e-02  -1.685256374502323e-03 
3.000000e-02  -8.503381696100423e-04 
3.500000e-02  2.295109472835047e-04 
4.000000e-02  1.119607133423379e-03 
4.500000e-02  1.406105341812923e-03 
5.000000e-02  8.853943950811515e-04 
5.500000e-02  -3.183761050865421e-04 
6.000000e-02  -1.769937097786959e-03 
6.500000e-02  -2.880548393136675e-03 
7.000000e-02  -3.149469284982781e-03 
7.500000e-02  -2.387244250638888e-03 
8.000000e-02  -8.170297724286689e-04 
8.500000e-02  9.969841439900317e-04 
9.000000e-02  2.367140337435597e-03 
9.500000e-02  2.760315869584479e-03 
1.000000e-01  2.022051696373126e-03 
1.050000e-01  4.438203209473420e-04 
1.100000e-01  -1.357952429454146e-03 
1.150000e-01  -2.690408308992983e-03 
1.200000e-01  -3.054583475420172e-03 
1.250000e-01  -2.334598974075115e-03 
1.300000e-01  -8.311236791272985e-04 
1.350000e-01  8.731334510389927e-04 
1.400000e-01  2.151472150705302e-03 
1.450000e-01  2.571822601738947e-03 
1.500000e-01  2.045246083318549e-03 
1.550000e-01  8.358640737570187e-04 
1.600000e-01  -5.601407243657811e-04 
1.650000e-01  -1.611519298367288e-03 
1.700000e-01  -1.951055119568392e-03 
1.750000e-01  -1.506390833414106e-03 
1.800000e-01  -5.128365530719167e-04 
1.850000e-01  5.971433159194371e-04 
1.900000e-01  1.378842911295845e-03 
1.950000e-01  1.553265944395944e-03 
2.000000e-01  1.101250700627326e-03 
2.050000e-01  2.375715413902645e-04 
2.100000e-01  -7.091242488338845e-04 
2.150000e-01  -1.439749054674641e-03 
2.200000e-01  -1.783954345037860e-03 
2.250000e-01  -1.726593944382930e-03 
2.300000e-01  -1.373241004352619e-03 
2.350000e-01  -8.867026692786587e-04 
2.400000e-01  -4.257397072656432e-04 
2.450000e-01  -1.042127570728349e-04 
2.500000e-01  2.533574533836413e-05 
2.550000e-01  -3.242615831575256e-05 
2.600000e-01  -2.325391182302174e-04 
2.650000e-01  -5.074781265078908e-04 
2.700000e-01  -7.748326014106188e-04 
2.750000e-01  -9.372804579008153e-04 
2.800000e-01  -8.914480167459169e-04 
2.850000e-01  -5.599061549672353e-04 
2.900000e-01  5.931857072891843e-05 
2.950000e-01  8.532782848156923e-04 
3.000000e-01  1.599348798082320e-03 
3.050000e-01  2.033087659043245e-03 
3.100000e-01  1.960353836931716e-03 
3.150000e-01  1.360310765628031e-03 
3.200000e-01  4.199146642367727e-04 
3.250000e-01  -5.263074334366277e-04 
3.300000e-01  -1.127026040038334e-03 
3.350000e-01  -1.156645194373469e-03 
3.400000e-01  -6.072256486773594e-04 
3.450000e-01  3.083740434695586e-04 
3.500000e-01  1.241543616657749e-03 
3.550000e-01  1.844719462733834e-03 
3.600000e-01  1.902577807239783e-03 
3.650000e-01  1.401693211012065e-03 
3.700000e-01  5.134152270629174e-04 
3.750000e-01  -4.881472991537573e-04 
3.800000e-01  -1.325024544297825e-03 
3.850000e-01  -1.795188388529585e-03 
3.900000e-01  -1.820974685786471e-03 
3.950000e-01  -1.461896013989320e-03 
4.000000e-01  -8.865610826642816e-04 
4.050000e-01  -3.077056127166916e-04 
4.100000e-01  9.590813799743517e-05 
4.150000e-01  2.354465711803152e-04 
4.200000e-01  1.221801136087910e-04 
4.250000e-01  -1.621995729182404e-04 
4.300000e-01  -5.060039141256851e-04 
4.350000e-01  -7.946640669221820e-04 
4.400000e-01  -9.269957492849526e-04 
4.450000e-01  -8.388990596382690e-04 
4.500000e-01  -5.376688171397071e-04 
4.550000e-01  -1.220481039520169e-04 
4.600000e-01  2.420215619115768e-04 
4.650000e-01  3.923417950034783e-04 
4.700000e-01  2.552197782281204e-04 
4.750000e-01  -1.035457025697833e-04 
4.800000e-01  -4.955500073857814e-04 
4.850000e-01  -6.944403930657715e-04 
4.900000e-01  -5.492595520490406e-04 
4.950000e-01  -6.645093841105808e-05 
5.000000e-01  5.852766302160713e-04 
5.050000e-01  1.151037456358755e-03 
5.100000e-01  1.409132175762870e-03 
5.150000e-01  1.276960488865431e-03 
5.200000e-01  8.531904929708660e-04 
5.250000e-01  3.735272945118495e-04 
5.300000e-01  9.835807353590273e-05 
5.350000e-01  1.858762609685640e-04 
5.400000e-01  6.127276916297104e-04 
5.450000e-01  1.181526086623550e-03 
5.500000e-01  1.614524680604960e-03 
5.550000e-01  1.692108387560239e-03 
5.600000e-01  1.368465509173293e-03 
5.650000e-01  8.012796323051391e-04 
5.700000e-01  2.744284410018013e-04 
5.750000e-01  5.222021973248130e-05 
5.800000e-01  2.425280099082960e-04 
5.850000e-01  7.403238686733381e-04 
5.900000e-01  1.279121699792948e-03 
5.950000e-01  1.562200547613937e-03 
6.000000e-01  1.405844009433490e-03 
6.050000e-01  8.220290077517430e-04 
6.100000e-01  3.004209185042688e-06 
6.150000e-01  -7.744414233701669e-04 
6.200000e-01  -1.268741610971686e-03 
6.250000e-01  -1.360194844747423e-03 
6.300000e-01  -1.073925239862060e-03 
6.350000e-01  -5.427227575354207e-04 
6.400000e-01  6.012170502963738e-05 
6.450000e-01  5.804877834366731e-04 
6.500000e-01  9.134076715709737e-04 
6.550000e-01  1.007039852412568e-03 
6.600000e-01  8.600460838602222e-04 
6.650000e-01  5.261090951090818e-04 
6.700000e-01  1.198003793430194e-04 
6.750000e-01  -1.965870693929650e-04 
6.800000e-01  -2.601764582438537e-04 
6.850000e-01  2.154012478356674e-05 
6.900000e-01  6.122195708744235e-04 
6.950000e-01  1.340129555658246e-03 
7.000000e-01  1.957343522259773e-03 
7.050000e-01  2.242884880313842e-03 
7.100000e-01  2.104562596910347e-03 
7.150000e-01  1.630977624896505e-03 
7.200000e-01  1.063102640130854e-03 
7.250000e-01  6.906502318532119e-04 
7.300000e-01  7.175363824285298e-04 
7.350000e-01  1.161314741572896e-03 
7.400000e-01  1.838622066183402e-03 
7.450000e-01  2.446667041057117e-03 
7.500000e-01  2.702864077734820e-03 
7.550000e-01  2.475400766762018e-03 
7.600000e-01  1.840096545537675e-03 
7.650000e-01  1.036343768355315e-03 
7.700000e-01  3.505448438978346e-04 
7.750000e-01  -8.112508183473282e-06 
7.800000e-01  1.865279957691521e-05 
7.850000e-01  3.369974742574887e-04 
7.900000e-01  7.579778986456121e-04 
7.950000e-01  1.079131570289850e-03 
8.000000e-01  1.154718095869184e-03 
8.050000e-01  9.304350198458016e-04 
8.100000e-01  4.398579529352161e-04 
8.150000e-01  -2.205221713079895e-04 
8.200000e-01  -9.172333682721657e-04 
8.250000e-01  -1.499804411252935e-03 
8.300000e-01  -1.823495478392931e-03 
8.350000e-01  -1.785842224668334e-03 
8.400000e-01  -1.373951163673222e-03 
8.450000e-01  -6.990083395887377e-04 
8.500000e-01  1.402771794693767e-05 
8.550000e-01  4.969174804962126e-04 
8.600000e-01  5.484812938312528e-04 
8.650000e-01  1.332739910399848e-04 
8.700000e-01  -5.856358383124680e-04 
8.750000e-01  -1.303836553903086e-03 
8.800000e-01  -1.703129574274679e-03 
8.850000e-01  -1.595536983532507e-03 
8.900000e-01  -1.016162919138486e-03 
8.950000e-01  -2.137220708059798e-04 
9.000000e-01  4.635555048704413e-04 
9.050000e-01  7.320777168608576e-04 
9.100000e-01  5.046175716370365e-04 
9.150000e-01  -7.654997393576622e-05 
9.200000e-01  -7.209558834580393e-04 
9.250000e-01  -1.141679034085979e-03 
9.300000e-01  -1.195869619803073e-03 
9.350000e-01  -9.405199264574898e-04 
9.400000e-01  -5.801679253411131e-04 
9.450000e-01  -3.437893834305195e-04 
9.500000e-01  -3.625833432144446e-04 
9.550000e-01  -6.133843178147269e-04 
9.600000e-01  -9.526526683503824e-04 
9.650000e-01  -1.214321740419819e-03 
9.700000e-01  -1.307968352267505e-03 
9.750000e-01  -1.256290760175714e-03 
9.800000e-01  -1.155347781364956e-03 
9.850000e-01  -1.095963591883339e-03 
9.900000e-01  -1.106463994049120e-03 
9.950000e-01  -1.151314500786793e-03 
1.000000e+00  -1.174812999889908e-03 
