TITLE ="t=83.288398" 
VARIABLES = "x"                 "mu" 
ZONE I=201, ZONETYPE=Ordered, DATAPACKING=POINT
0.000000e+00  1.077001157322174e-05 
5.000000e-03  1.077571267202934e-05 
1.000000e-02  1.079528243132315e-05 
1.500000e-02  1.082132936683203e-05 
2.000000e-02  1.085198744568144e-05 
2.500000e-02  1.088900871305297e-05 
3.000000e-02  1.093647444353350e-05 
3.500000e-02  1.100269910912082e-05 
4.000000e-02  1.110680026506149e-05 
4.500000e-02  1.130313947741683e-05 
5.000000e-02  1.180650047027547e-05 
5.500000e-02  1.375984142069413e-05 
6.000000e-02  1.546114829273767e-05 
6.500000e-02  1.584376957643179e-05 
7.000000e-02  1.594307234352299e-05 
7.500000e-02  1.594454326584263e-05 
8.000000e-02  1.588798131623808e-05 
8.500000e-02  1.577308291900687e-05 
9.000000e-02  1.556912761208605e-05 
9.500000e-02  1.518001513249516e-05 
1.000000e-01  1.426265758604223e-05 
1.050000e-01  1.109182911918405e-05 
1.100000e-01  -1.954553550221771e-06 
1.150000e-01  -8.765826522658320e-06 
1.200000e-01  -1.037189977032722e-05 
1.250000e-01  -1.095102832907231e-05 
1.300000e-01  -1.123755068519834e-05 
1.350000e-01  -1.140499885331157e-05 
1.400000e-01  -1.150961556588792e-05 
1.450000e-01  -1.157020807061955e-05 
1.500000e-01  -1.158313912884028e-05 
1.550000e-01  -1.150244436100028e-05 
1.600000e-01  -1.107937791680741e-05 
1.650000e-01  -9.028746935303692e-06 
1.700000e-01  -6.055604127560269e-06 
1.750000e-01  -3.158450881901276e-06 
1.800000e-01  -4.443094737935194e-07 
1.850000e-01  3.306554438001970e-07 
1.900000e-01  5.386994255688462e-07 
1.950000e-01  6.205790396841151e-07 
2.000000e-01  6.603027672427786e-07 
2.050000e-01  6.799421220080236e-07 
2.100000e-01  6.859637746225643e-07 
2.150000e-01  6.775874743000383e-07 
2.200000e-01  6.442869468650567e-07 
2.250000e-01  5.416555393434958e-07 
2.300000e-01  1.334883452593393e-07 
2.350000e-01  -1.345565287235128e-06 
2.400000e-01  -2.951398649853818e-06 
2.450000e-01  -4.540015869921920e-06 
2.500000e-01  -6.124501010583234e-06 
2.550000e-01  -7.752065079892201e-06 
2.600000e-01  -8.424548759214411e-06 
2.650000e-01  -8.581461664223309e-06 
2.700000e-01  -8.633009286068652e-06 
2.750000e-01  -8.652934279102856e-06 
2.800000e-01  -8.658120846786404e-06 
2.850000e-01  -8.652643985659286e-06 
2.900000e-01  -8.634767597989406e-06 
2.950000e-01  -8.594805187307108e-06 
3.000000e-01  -8.497327537874891e-06 
3.050000e-01  -8.168624891450798e-06 
3.100000e-01  -6.745414588607998e-06 
3.150000e-01  -4.782988192047194e-06 
3.200000e-01  -2.885308959319548e-06 
3.250000e-01  -9.752892732272796e-07 
3.300000e-01  9.204503065544861e-07 
3.350000e-01  2.893865214632706e-06 
3.400000e-01  3.882565397495943e-06 
3.450000e-01  4.116575488684207e-06 
3.500000e-01  4.200458627062075e-06 
3.550000e-01  4.243581028795080e-06 
3.600000e-01  4.271241905242456e-06 
3.650000e-01  4.292060467017765e-06 
3.700000e-01  4.310171269382822e-06 
3.750000e-01  4.328886780573748e-06 
3.800000e-01  4.354190659774285e-06 
3.850000e-01  4.409874406382719e-06 
3.900000e-01  4.620556265490177e-06 
3.950000e-01  4.951198295375613e-06 
4.000000e-01  5.268825909907181e-06 
4.050000e-01  5.588569549853799e-06 
4.100000e-01  5.907982552864577e-06 
4.150000e-01  6.227445430314760e-06 
4.200000e-01  6.546899279960202e-06 
4.250000e-01  6.866352798053673e-06 
4.300000e-01  7.185811098993446e-06 
4.350000e-01  7.505235193841887e-06 
4.400000e-01  7.824878742859254e-06 
4.450000e-01  8.143114164458389e-06 
4.500000e-01  8.470106589216981e-06 
4.550000e-01  8.728066510223629e-06 
4.600000e-01  8.787842460513061e-06 
4.650000e-01  8.802861669660801e-06 
4.700000e-01  8.806753309749003e-06 
4.750000e-01  8.805998602113280e-06 
4.800000e-01  8.801953542311660e-06 
4.850000e-01  8.794075926372622e-06 
4.900000e-01  8.779674474236048e-06 
4.950000e-01  8.750206074944201e-06 
5.000000e-01  8.671024919436073e-06 
5.050000e-01  8.353151269509818e-06 
5.100000e-01  7.488685962337776e-06 
5.150000e-01  6.632304970356501e-06 
5.200000e-01  5.774643798252664e-06 
5.250000e-01  4.917174801333266e-06 
5.300000e-01  4.059668598523382e-06 
5.350000e-01  3.202161447444271e-06 
5.400000e-01  2.344647417455075e-06 
5.450000e-01  1.487131631862255e-06 
5.500000e-01  6.295888978058679e-07 
5.550000e-01  -2.278181720293422e-07 
5.600000e-01  -1.086127491710802e-06 
5.650000e-01  -1.938653563835707e-06 
5.700000e-01  -2.826661623032071e-06 
5.750000e-01  -3.370074407011521e-06 
5.800000e-01  -3.492157828183116e-06 
5.850000e-01  -3.529609677606700e-06 
5.900000e-01  -3.544738176418037e-06 
5.950000e-01  -3.550703506224140e-06 
6.000000e-01  -3.551027310053861e-06 
6.050000e-01  -3.545869342019146e-06 
6.100000e-01  -3.532256660943972e-06 
6.150000e-01  -3.499023465742769e-06 
6.200000e-01  -3.395510921702009e-06 
6.250000e-01  -2.939776161247395e-06 
6.300000e-01  -2.043892057553527e-06 
6.350000e-01  -1.183700843416790e-06 
6.400000e-01  -3.176586159766432e-07 
6.450000e-01  5.473500291235849e-07 
6.500000e-01  1.413408829184447e-06 
6.550000e-01  2.273651185327497e-06 
6.600000e-01  3.169485096618304e-06 
6.650000e-01  3.723818810839824e-06 
6.700000e-01  3.850161618045738e-06 
6.750000e-01  3.890587800910708e-06 
6.800000e-01  3.908709120335467e-06 
6.850000e-01  3.918141127812683e-06 
6.900000e-01  3.922891297798684e-06 
6.950000e-01  3.924002942603541e-06 
7.000000e-01  3.920571281867806e-06 
7.050000e-01  3.907697682817323e-06 
7.100000e-01  3.862184015388682e-06 
7.150000e-01  3.653843097640377e-06 
7.200000e-01  3.237579892193498e-06 
7.250000e-01  2.837768983794436e-06 
7.300000e-01  2.435274405892826e-06 
7.350000e-01  2.033189535198050e-06 
7.400000e-01  1.631053440625722e-06 
7.450000e-01  1.228817766809669e-06 
7.500000e-01  8.272667163912868e-07 
7.550000e-01  4.213549368504541e-07 
7.600000e-01  4.532088280744723e-08 
7.650000e-01  -6.452375324920302e-08 
7.700000e-01  -9.877377181839520e-08 
7.750000e-01  -1.166883521084247e-07 
7.800000e-01  -1.300590113917681e-07 
7.850000e-01  -1.427158720565795e-07 
7.900000e-01  -1.571427307894891e-07 
7.950000e-01  -1.767670145748456e-07 
8.000000e-01  -2.096664063887612e-07 
8.050000e-01  -2.843899425145114e-07 
8.100000e-01  -5.486217128251137e-07 
8.150000e-01  -1.469126528200391e-06 
8.200000e-01  -2.460428532482343e-06 
8.250000e-01  -3.441427973343425e-06 
8.300000e-01  -4.423919220885725e-06 
8.350000e-01  -5.406929617190184e-06 
8.400000e-01  -6.384908783634857e-06 
8.450000e-01  -7.394241540263024e-06 
8.500000e-01  -7.831628930334624e-06 
8.550000e-01  -7.934651597250632e-06 
8.600000e-01  -7.969947466027919e-06 
8.650000e-01  -7.985520513828666e-06 
8.700000e-01  -7.992488733947742e-06 
8.750000e-01  -7.993994783769592e-06 
8.800000e-01  -7.990097142700344e-06 
8.850000e-01  -7.977601754178013e-06 
8.900000e-01  -7.943860857256390e-06 
8.950000e-01  -7.826595526804151e-06 
9.000000e-01  -7.308672366213909e-06 
9.050000e-01  -6.569138575858877e-06 
9.100000e-01  -5.855359539776085e-06 
9.150000e-01  -5.137156276274972e-06 
9.200000e-01  -4.421248313535958e-06 
9.250000e-01  -3.694875225624145e-06 
9.300000e-01  -3.041774121978309e-06 
9.350000e-01  -2.864456738477274e-06 
9.400000e-01  -2.814201285911608e-06 
9.450000e-01  -2.792597042734980e-06 
9.500000e-01  -2.780488609810749e-06 
9.550000e-01  -2.772507565794605e-06 
9.600000e-01  -2.766636026391992e-06 
9.650000e-01  -2.761955118690744e-06 
9.700000e-01  -2.757999067330278e-06 
9.750000e-01  -2.754588056632731e-06 
9.800000e-01  -2.752276612272358e-06 
9.850000e-01  -2.752034642695813e-06 
9.900000e-01  -2.752064400105791e-06 
9.950000e-01  -2.752063248681605e-06 
1.000000e+00  -2.752065007667613e-06 
