TITLE ="t=643.288398" 
VARIABLES = "x"                 "mu" 
ZONE I=201, ZONETYPE=Ordered, DATAPACKING=POINT
0.000000e+00  1.303205724980406e-05 
5.000000e-03  1.303061222939118e-05 
1.000000e-02  1.302725706646831e-05 
1.500000e-02  1.302312009467095e-05 
2.000000e-02  1.301826123988876e-05 
2.500000e-02  1.301233110426006e-05 
3.000000e-02  1.300460209912539e-05 
3.500000e-02  1.299357298988604e-05 
4.000000e-02  1.297566709807343e-05 
4.500000e-02  1.294012143624325e-05 
5.000000e-02  1.284050799850030e-05 
5.500000e-02  1.240153686310792e-05 
6.000000e-02  1.195062120749007e-05 
6.500000e-02  1.184159510667911e-05 
7.000000e-02  1.179633127458133e-05 
7.500000e-02  1.176733823908225e-05 
8.000000e-02  1.174278466597028e-05 
8.500000e-02  1.171725538793573e-05 
9.000000e-02  1.168547243574161e-05 
9.500000e-02  1.163743016180146e-05 
1.000000e-01  1.154333397398038e-05 
1.050000e-01  1.126698819070430e-05 
1.100000e-01  1.003872821273246e-05 
1.150000e-01  8.822995782966883e-06 
1.200000e-01  8.538807843919099e-06 
1.250000e-01  8.431262084689984e-06 
1.300000e-01  8.366707430899148e-06 
1.350000e-01  8.314525783403381e-06 
1.400000e-01  8.262261380661115e-06 
1.450000e-01  8.199397033156090e-06 
1.500000e-01  8.107913568128780e-06 
1.550000e-01  7.937751507760866e-06 
1.600000e-01  7.474987585333195e-06 
1.650000e-01  5.538957374905927e-06 
1.700000e-01  1.692564095411745e-06 
1.750000e-01  -2.077136735458915e-06 
1.800000e-01  -5.318884843347827e-06 
1.850000e-01  -6.146024923734775e-06 
1.900000e-01  -6.384596267605719e-06 
1.950000e-01  -6.486886102056492e-06 
2.000000e-01  -6.542161149830638e-06 
2.050000e-01  -6.575570661839945e-06 
2.100000e-01  -6.595751667101674e-06 
2.150000e-01  -6.604495053876202e-06 
2.200000e-01  -6.596461082788099e-06 
2.250000e-01  -6.543205165643890e-06 
2.300000e-01  -6.284762219239124e-06 
2.350000e-01  -5.460322232889213e-06 
2.400000e-01  -4.619297315015810e-06 
2.450000e-01  -3.779913785319430e-06 
2.500000e-01  -2.945931836165304e-06 
2.550000e-01  -2.076455889427955e-06 
2.600000e-01  -1.604148969400129e-06 
2.650000e-01  -1.492434672381202e-06 
2.700000e-01  -1.452161106859875e-06 
2.750000e-01  -1.430648405007832e-06 
2.800000e-01  -1.415830285081436e-06 
2.850000e-01  -1.403411261551676e-06 
2.900000e-01  -1.390873333403566e-06 
2.950000e-01  -1.375200282629231e-06 
3.000000e-01  -1.349006973125395e-06 
3.050000e-01  -1.280549257442535e-06 
3.100000e-01  -9.982539457487830e-07 
3.150000e-01  -5.158968683439434e-07 
3.200000e-01  -5.331525193010359e-08 
3.250000e-01  4.129760811794819e-07 
3.300000e-01  8.755533169397329e-07 
3.350000e-01  1.357888325609235e-06 
3.400000e-01  1.618157049325057e-06 
3.450000e-01  1.680531457960052e-06 
3.500000e-01  1.703754681340808e-06 
3.550000e-01  1.716794480768155e-06 
3.600000e-01  1.726391696104274e-06 
3.650000e-01  1.735099766323864e-06 
3.700000e-01  1.744689257598987e-06 
3.750000e-01  1.757752705095740e-06 
3.800000e-01  1.781268755047075e-06 
3.850000e-01  1.845981007706342e-06 
3.900000e-01  2.118408749831999e-06 
3.950000e-01  2.581461089079530e-06 
4.000000e-01  3.025647005772702e-06 
4.050000e-01  3.472914563386023e-06 
4.100000e-01  3.919706236638048e-06 
4.150000e-01  4.366574337819771e-06 
4.200000e-01  4.813432687867989e-06 
4.250000e-01  5.260292902246888e-06 
4.300000e-01  5.707164216808750e-06 
4.350000e-01  6.153973684792217e-06 
4.400000e-01  6.601189328818979e-06 
4.450000e-01  7.045798992166395e-06 
4.500000e-01  7.506479584172844e-06 
4.550000e-01  7.828649481472457e-06 
4.600000e-01  7.902265299462774e-06 
4.650000e-01  7.924209468398794e-06 
4.700000e-01  7.933119015221740e-06 
4.750000e-01  7.936927993367724e-06 
4.800000e-01  7.937785808479898e-06 
4.850000e-01  7.935992606341281e-06 
4.900000e-01  7.930385304271984e-06 
4.950000e-01  7.916379973575120e-06 
5.000000e-01  7.873842580788634e-06 
5.050000e-01  7.690576659003339e-06 
5.100000e-01  7.268007258747787e-06 
5.150000e-01  6.858671694750613e-06 
5.200000e-01  6.447199407351050e-06 
5.250000e-01  6.036056168970438e-06 
5.300000e-01  5.624858720004890e-06 
5.350000e-01  5.213667207245301e-06 
5.400000e-01  4.802472151585006e-06 
5.450000e-01  4.391277129876196e-06 
5.500000e-01  3.980069700023313e-06 
5.550000e-01  3.568929446442452e-06 
5.600000e-01  3.157348807631236e-06 
5.650000e-01  2.748597848597824e-06 
5.700000e-01  2.322498199012339e-06 
5.750000e-01  2.095163634196650e-06 
5.800000e-01  2.042202237864603e-06 
5.850000e-01  2.023863422471491e-06 
5.900000e-01  2.014807699551683e-06 
5.950000e-01  2.009316351193297e-06 
6.000000e-01  2.005530848891222e-06 
6.050000e-01  2.002693509862930e-06 
6.100000e-01  2.000471596559464e-06 
6.150000e-01  1.998810204995081e-06 
6.200000e-01  1.998304771858498e-06 
6.250000e-01  2.002880707276414e-06 
6.300000e-01  2.012163158005466e-06 
6.350000e-01  2.021065171834660e-06 
6.400000e-01  2.030031142966271e-06 
6.450000e-01  2.038986961298263e-06 
6.500000e-01  2.047954726443593e-06 
6.550000e-01  2.056862161132975e-06 
6.600000e-01  2.066145368775997e-06 
6.650000e-01  2.072152920306085e-06 
6.700000e-01  2.074442972466894e-06 
6.750000e-01  2.076075496452811e-06 
6.800000e-01  2.077686877769682e-06 
6.850000e-01  2.079524181255030e-06 
6.900000e-01  2.081848437707732e-06 
6.950000e-01  2.085125445542695e-06 
7.000000e-01  2.090441849021853e-06 
7.050000e-01  2.101105034366134e-06 
7.100000e-01  2.131732045265702e-06 
7.150000e-01  2.262922904024466e-06 
7.200000e-01  2.509249970319280e-06 
7.250000e-01  2.745555335361293e-06 
7.300000e-01  2.983496502510947e-06 
7.350000e-01  3.221185497838859e-06 
7.400000e-01  3.458910170923143e-06 
7.450000e-01  3.696661030642582e-06 
7.500000e-01  3.934213508116960e-06 
7.550000e-01  4.173043419395112e-06 
7.600000e-01  4.403353158694175e-06 
7.650000e-01  4.472865941693014e-06 
7.700000e-01  4.488630398499001e-06 
7.750000e-01  4.492481306199488e-06 
7.800000e-01  4.492029418305847e-06 
7.850000e-01  4.488882655362797e-06 
7.900000e-01  4.482883122210796e-06 
7.950000e-01  4.472378216056160e-06 
8.000000e-01  4.452290308076360e-06 
8.050000e-01  4.404193499879815e-06 
8.100000e-01  4.233666543771034e-06 
8.150000e-01  3.585559422473090e-06 
8.200000e-01  2.849155723609846e-06 
8.250000e-01  2.125011444075433e-06 
8.300000e-01  1.399046783319996e-06 
8.350000e-01  6.726158893376933e-07 
8.400000e-01  -4.883320793255106e-08 
8.450000e-01  -8.010243549023316e-07 
8.500000e-01  -1.208371984629934e-06 
8.550000e-01  -1.302313484808334e-06 
8.600000e-01  -1.333971157864505e-06 
8.650000e-01  -1.348878656723307e-06 
8.700000e-01  -1.357174493365130e-06 
8.750000e-01  -1.361986338210903e-06 
8.800000e-01  -1.364273472549280e-06 
8.850000e-01  -1.363679123592325e-06 
8.900000e-01  -1.357344052630812e-06 
8.950000e-01  -1.330810919552032e-06 
9.000000e-01  -1.203992633295951e-06 
9.050000e-01  -9.829107361246944e-07 
9.100000e-01  -7.708716556737693e-07 
9.150000e-01  -5.573001735691073e-07 
9.200000e-01  -3.443115974795057e-07 
9.250000e-01  -1.290370209034136e-07 
9.300000e-01  7.076283721026386e-08 
9.350000e-01  1.278154454398702e-07 
9.400000e-01  1.436214660954926e-07 
9.450000e-01  1.502829103336705e-07 
9.500000e-01  1.539719825350513e-07 
9.550000e-01  1.563837668733047e-07 
9.600000e-01  1.581467642759799e-07 
9.650000e-01  1.595442426618861e-07 
9.700000e-01  1.607184398697453e-07 
9.750000e-01  1.617248733584181e-07 
9.800000e-01  1.624193171209869e-07 
9.850000e-01  1.625130150646365e-07 
9.900000e-01  1.625037028205567e-07 
9.950000e-01  1.625041491140484e-07 
1.000000e+00  1.625035967653148e-07 
