TITLE ="t=503.288398" 
VARIABLES = "x"                 "mu" 
ZONE I=201, ZONETYPE=Ordered, DATAPACKING=POINT
0.000000e+00  1.563532417413826e-05 
5.000000e-03  1.563394521165957e-05 
1.000000e-02  1.563062055442131e-05 
1.500000e-02  1.562648849254612e-05 
2.000000e-02  1.562163164846190e-05 
2.500000e-02  1.561570806248585e-05 
3.000000e-02  1.560799828389051e-05 
3.500000e-02  1.559701964785381e-05 
4.000000e-02  1.557925288195521e-05 
4.500000e-02  1.554417182138742e-05 
5.000000e-02  1.544676404763917e-05 
5.500000e-02  1.502034527660047e-05 
6.000000e-02  1.458342584242900e-05 
6.500000e-02  1.447749314157066e-05 
7.000000e-02  1.443356860667802e-05 
7.500000e-02  1.440570301998814e-05 
8.000000e-02  1.438239296218858e-05 
8.500000e-02  1.435842788593355e-05 
9.000000e-02  1.432883957733991e-05 
9.500000e-02  1.428430680532804e-05 
1.000000e-01  1.419699791903432e-05 
1.050000e-01  1.393874424242355e-05 
1.100000e-01  1.279654135171800e-05 
1.150000e-01  1.163202478013092e-05 
1.200000e-01  1.136050600586745e-05 
1.250000e-01  1.126109055036161e-05 
1.300000e-01  1.120313695286981e-05 
1.350000e-01  1.115742983632260e-05 
1.400000e-01  1.111259928956935e-05 
1.450000e-01  1.105965293213563e-05 
1.500000e-01  1.098391603360136e-05 
1.550000e-01  1.084570171650772e-05 
1.600000e-01  1.047935204496967e-05 
1.650000e-01  8.971333519725984e-06 
1.700000e-01  5.749854761920690e-06 
1.750000e-01  2.606097613388643e-06 
1.800000e-01  -2.874810861894474e-07 
1.850000e-01  -1.093049085586799e-06 
1.900000e-01  -1.318540542363508e-06 
1.950000e-01  -1.414385667818817e-06 
2.000000e-01  -1.467684070569173e-06 
2.050000e-01  -1.502573547281270e-06 
2.100000e-01  -1.528038189156094e-06 
2.150000e-01  -1.548096091096843e-06 
2.200000e-01  -1.564634655952733e-06 
2.250000e-01  -1.577830322435982e-06 
2.300000e-01  -1.582203323095588e-06 
2.350000e-01  -1.563849512443128e-06 
2.400000e-01  -1.542878032800390e-06 
2.450000e-01  -1.522209107808909e-06 
2.500000e-01  -1.501635706561823e-06 
2.550000e-01  -1.480192614457445e-06 
2.600000e-01  -1.467438928905041e-06 
2.650000e-01  -1.462628788319919e-06 
2.700000e-01  -1.459250486819390e-06 
2.750000e-01  -1.455952582763659e-06 
2.800000e-01  -1.452209518107273e-06 
2.850000e-01  -1.447475101111426e-06 
2.900000e-01  -1.440776775871687e-06 
2.950000e-01  -1.429825224771191e-06 
3.000000e-01  -1.407530587181679e-06 
3.050000e-01  -1.341786449339544e-06 
3.100000e-01  -1.057667595701485e-06 
3.150000e-01  -5.697100513580053e-07 
3.200000e-01  -1.017548006096089e-07 
3.250000e-01  3.699551387356169e-07 
3.300000e-01  8.379081329319553e-07 
3.350000e-01  1.325853539312396e-06 
3.400000e-01  1.589426708508699e-06 
3.450000e-01  1.652735117358363e-06 
3.500000e-01  1.676435201484590e-06 
3.550000e-01  1.689859439140754e-06 
3.600000e-01  1.699849995247786e-06 
3.650000e-01  1.709027523475637e-06 
3.700000e-01  1.719258993403916e-06 
3.750000e-01  1.733350774178236e-06 
3.800000e-01  1.758934900566008e-06 
3.850000e-01  1.829705574404862e-06 
3.900000e-01  2.128254161914314e-06 
3.950000e-01  2.636190634516056e-06 
4.000000e-01  3.123427897810883e-06 
4.050000e-01  3.614046693008503e-06 
4.100000e-01  4.104143771658605e-06 
4.150000e-01  4.594325144937601e-06 
4.200000e-01  5.084496262473914e-06 
4.250000e-01  5.574669984269203e-06 
4.300000e-01  6.064855847845597e-06 
4.350000e-01  6.554977777215102e-06 
4.400000e-01  7.045524106001650e-06 
4.450000e-01  7.533352799791165e-06 
4.500000e-01  8.037974517923204e-06 
4.550000e-01  8.401091916026702e-06 
4.600000e-01  8.484459678494563e-06 
4.650000e-01  8.508894808173999e-06 
4.700000e-01  8.518574857433798e-06 
4.750000e-01  8.522488084819557e-06 
4.800000e-01  8.523026190403761e-06 
4.850000e-01  8.520466516279241e-06 
4.900000e-01  8.513375153541644e-06 
4.950000e-01  8.496276093731112e-06 
5.000000e-01  8.445458902046769e-06 
5.050000e-01  8.229202713810570e-06 
5.100000e-01  7.711799128452082e-06 
5.150000e-01  7.208787811971611e-06 
5.200000e-01  6.703461651532459e-06 
5.250000e-01  6.198491673548699e-06 
5.300000e-01  5.693462497961396e-06 
5.350000e-01  5.188439317710968e-06 
5.400000e-01  4.683411817878094e-06 
5.450000e-01  4.178384171314397e-06 
5.500000e-01  3.673341022355623e-06 
5.550000e-01  3.168380631997613e-06 
5.600000e-01  2.662876127059487e-06 
5.650000e-01  2.160866201884704e-06 
5.700000e-01  1.637435553234405e-06 
5.750000e-01  1.352726261164086e-06 
5.800000e-01  1.286793675615537e-06 
5.850000e-01  1.264313277906207e-06 
5.900000e-01  1.253455556379569e-06 
5.950000e-01  1.247103998271711e-06 
6.000000e-01  1.243001825213582e-06 
6.050000e-01  1.240325072184042e-06 
6.100000e-01  1.238945025618276e-06 
6.150000e-01  1.239677021733597e-06 
6.200000e-01  1.247254755482163e-06 
6.250000e-01  1.288384666055217e-06 
6.300000e-01  1.361391667202171e-06 
6.350000e-01  1.431411815286743e-06 
6.400000e-01  1.501923244591210e-06 
6.450000e-01  1.572348363302775e-06 
6.500000e-01  1.642861509426200e-06 
6.550000e-01  1.712888699921400e-06 
6.600000e-01  1.785888079079496e-06 
6.650000e-01  1.829103632755290e-06 
6.700000e-01  1.839613773248939e-06 
6.750000e-01  1.843658581487970e-06 
6.800000e-01  1.846105725169090e-06 
6.850000e-01  1.848088644061925e-06 
6.900000e-01  1.850076501528842e-06 
6.950000e-01  1.852471754676874e-06 
7.000000e-01  1.855973387463824e-06 
7.050000e-01  1.862552532327476e-06 
7.100000e-01  1.880798546728667e-06 
7.150000e-01  1.957918147076529e-06 
7.200000e-01  2.101555569271590e-06 
7.250000e-01  2.239337509388204e-06 
7.300000e-01  2.378075678775466e-06 
7.350000e-01  2.516667040274181e-06 
7.400000e-01  2.655278926007950e-06 
7.450000e-01  2.793912365727646e-06 
7.500000e-01  2.932394845499931e-06 
7.550000e-01  3.071850281848762e-06 
7.600000e-01  3.204718612019714e-06 
7.650000e-01  3.242583712837244e-06 
7.700000e-01  3.249841671878236e-06 
7.750000e-01  3.250108064933293e-06 
7.800000e-01  3.247561808043919e-06 
7.850000e-01  3.242880283375004e-06 
7.900000e-01  3.235513609262650e-06 
7.950000e-01  3.223506205466505e-06 
8.000000e-01  3.201251960305358e-06 
8.050000e-01  3.148500216600126e-06 
8.100000e-01  2.961116680815674e-06 
8.150000e-01  2.264842171857807e-06 
8.200000e-01  1.486698445986848e-06 
8.250000e-01  7.200806810384171e-07 
8.300000e-01  -4.823120822744741e-08 
8.350000e-01  -8.170587975816600e-07 
8.400000e-01  -1.580696282222749e-06 
8.450000e-01  -2.376356396948097e-06 
8.500000e-01  -2.789188162037859e-06 
8.550000e-01  -2.884309999176432e-06 
8.600000e-01  -2.916201409749846e-06 
8.650000e-01  -2.930784495715612e-06 
8.700000e-01  -2.938327356185132e-06 
8.750000e-01  -2.941895332180845e-06 
8.800000e-01  -2.942163756981635e-06 
8.850000e-01  -2.937985180989886e-06 
8.900000e-01  -2.923922395922436e-06 
8.950000e-01  -2.873495702383835e-06 
9.000000e-01  -2.642363822051233e-06 
9.050000e-01  -2.257230782952165e-06 
9.100000e-01  -1.887633379085177e-06 
9.150000e-01  -1.515400243763873e-06 
9.200000e-01  -1.144211530446260e-06 
9.250000e-01  -7.688344849759309e-07 
9.300000e-01  -4.219547512545774e-07 
9.350000e-01  -3.236712924625528e-07 
9.400000e-01  -2.963513531640275e-07 
9.450000e-01  -2.848032949206401e-07 
9.500000e-01  -2.783966634499820e-07 
9.550000e-01  -2.742031647447322e-07 
9.600000e-01  -2.711348475019377e-07 
9.650000e-01  -2.687006265251898e-07 
9.700000e-01  -2.666535815604065e-07 
9.750000e-01  -2.648975256657189e-07 
9.800000e-01  -2.636891001106215e-07 
9.850000e-01  -2.635317672031676e-07 
9.900000e-01  -2.635479347738446e-07 
9.950000e-01  -2.635472030435848e-07 
1.000000e+00  -2.635481658371845e-07 
