TITLE ="t=0.693770" 
VARIABLES = "x"                 "mu" 
ZONE I=201, ZONETYPE=Ordered, DATAPACKING=POINT
0.000000e+00  -1.686854646913310e-05 
5.000000e-03  -1.676237612339647e-05 
1.000000e-02  -1.654626182464818e-05 
1.500000e-02  -1.631614532175654e-05 
2.000000e-02  -1.608603401584734e-05 
2.500000e-02  -1.585019045549813e-05 
3.000000e-02  -1.559730778287939e-05 
3.500000e-02  -1.530922221126139e-05 
4.000000e-02  -1.495171303926398e-05 
4.500000e-02  -1.444200407612189e-05 
5.000000e-02  -1.349773645699678e-05 
5.500000e-02  -1.110959740613034e-05 
6.000000e-02  -1.027624571343809e-05 
6.500000e-02  -1.041359941029295e-05 
7.000000e-02  -1.070333808255842e-05 
7.500000e-02  -1.102417071226726e-05 
8.000000e-02  -1.135610772652934e-05 
8.500000e-02  -1.170083552791997e-05 
9.000000e-02  -1.206790627368882e-05 
9.500000e-02  -1.247390004441787e-05 
1.000000e-01  -1.295074826559637e-05 
1.050000e-01  -1.358405420357388e-05 
1.100000e-01  -1.462053425630418e-05 
1.150000e-01  -1.451532960690672e-05 
1.200000e-01  -1.399199688499720e-05 
1.250000e-01  -1.345081373268348e-05 
1.300000e-01  -1.292979414199800e-05 
1.350000e-01  -1.242235419267570e-05 
1.400000e-01  -1.191455420415000e-05 
1.450000e-01  -1.138942595452975e-05 
1.500000e-01  -1.082483461130688e-05 
1.550000e-01  -1.018324039581681e-05 
1.600000e-01  -9.355997562927622e-06 
1.650000e-01  -7.892024644168044e-06 
1.700000e-01  -6.419276573855636e-06 
1.750000e-01  -5.048062485860404e-06 
1.800000e-01  -3.803515139998386e-06 
1.850000e-01  -3.342522736321138e-06 
1.900000e-01  -3.091362366632454e-06 
1.950000e-01  -2.896934525263198e-06 
2.000000e-01  -2.725021503373935e-06 
2.050000e-01  -2.563057595611869e-06 
2.100000e-01  -2.404312969146468e-06 
2.150000e-01  -2.245146615323385e-06 
2.200000e-01  -2.087730892624454e-06 
2.250000e-01  -1.961162960498204e-06 
2.300000e-01  -2.075923047638450e-06 
2.350000e-01  -3.066415953287106e-06 
2.400000e-01  -4.271726987697102e-06 
2.450000e-01  -5.640247840123959e-06 
2.500000e-01  -7.206247839140677e-06 
2.550000e-01  -9.034675179124078e-06 
2.600000e-01  -1.001993556440800e-05 
2.650000e-01  -1.043613627438521e-05 
2.700000e-01  -1.062407212345408e-05 
2.750000e-01  -1.065284166546760e-05 
2.800000e-01  -1.051004046749401e-05 
2.850000e-01  -1.012194747364329e-05 
2.900000e-01  -9.299568601595773e-06 
2.950000e-01  -7.531495890202346e-06 
3.000000e-01  -3.070864032257139e-06 
3.050000e-01  1.268529739497783e-05 
3.100000e-01  8.048954061396316e-05 
3.150000e-01  1.691154054406282e-04 
3.200000e-01  2.547701824706853e-04 
3.250000e-01  3.401162389887829e-04 
3.300000e-01  4.247570490834352e-04 
3.350000e-01  5.061978561968848e-04 
3.400000e-01  5.029188283045460e-04 
3.450000e-01  4.575695477204296e-04 
3.500000e-01  3.980830540039851e-04 
3.550000e-01  3.260621595430673e-04 
3.600000e-01  2.362468055535293e-04 
3.650000e-01  1.167189345668800e-04 
3.700000e-01  -5.836536205214677e-05 
3.750000e-01  -3.540720452591112e-04 
3.800000e-01  -9.811510842160790e-04 
3.850000e-01  -2.895476367338611e-03 
3.900000e-01  -9.764648752128072e-03 
3.950000e-01  -1.694491423520776e-02 
4.000000e-01  -2.045464519706679e-02 
4.050000e-01  -2.189570591803460e-02 
4.100000e-01  -2.248037447094831e-02 
4.150000e-01  -2.264043184865430e-02 
4.200000e-01  -2.251802754889582e-02 
4.250000e-01  -2.215502844317600e-02 
4.300000e-01  -2.155195290335048e-02 
4.350000e-01  -2.068982796194325e-02 
4.400000e-01  -1.954090012224329e-02 
4.450000e-01  -1.807507603786766e-02 
4.500000e-01  -1.626349881476769e-02 
4.550000e-01  -1.408001238810164e-02 
4.600000e-01  -1.150626108036735e-02 
4.650000e-01  -8.559764197630675e-03 
4.700000e-01  -5.337661097291616e-03 
4.750000e-01  -2.025489517642230e-03 
4.800000e-01  1.138162849126494e-03 
4.850000e-01  3.933832252547995e-03 
4.900000e-01  6.229242607291245e-03 
4.950000e-01  7.998814012110937e-03 
5.000000e-01  9.296222847605156e-03 
5.050000e-01  1.021442406700275e-02 
5.100000e-01  1.085221542697258e-02 
5.150000e-01  1.128490022330003e-02 
5.200000e-01  1.155769930754518e-02 
5.250000e-01  1.168096454955655e-02 
5.300000e-01  1.158537356979414e-02 
5.350000e-01  1.100644528683100e-02 
5.400000e-01  9.991808424838482e-03 
5.450000e-01  8.859509973955257e-03 
5.500000e-01  7.611975029940768e-03 
5.550000e-01  6.251062360126076e-03 
5.600000e-01  4.786473100387242e-03 
5.650000e-01  3.239115184048168e-03 
5.700000e-01  1.553014465677056e-03 
5.750000e-01  4.233507032033977e-04 
5.800000e-01  1.485699342593161e-04 
5.850000e-01  5.471043046405977e-05 
5.900000e-01  7.894830809484769e-06 
5.950000e-01  -2.125025429416807e-05 
6.000000e-01  -4.209994947658921e-05 
6.050000e-01  -5.852332784665473e-05 
6.100000e-01  -7.240572215938695e-05 
6.150000e-01  -8.469651276021820e-05 
6.200000e-01  -9.533128916818485e-05 
6.250000e-01  -9.909112426032001e-05 
6.300000e-01  -9.167320905897548e-05 
6.350000e-01  -8.334784608449793e-05 
6.400000e-01  -7.378933952846713e-05 
6.450000e-01  -6.293266072385584e-05 
6.500000e-01  -5.072237114990938e-05 
6.550000e-01  -3.728388714526055e-05 
6.600000e-01  -2.206044316792188e-05 
6.650000e-01  -1.033814011770757e-05 
6.700000e-01  -5.245248419441787e-06 
6.750000e-01  -1.847570965338488e-06 
6.800000e-01  9.791557801255025e-07 
6.850000e-01  3.559300612188812e-06 
6.900000e-01  6.054589712216000e-06 
6.950000e-01  8.586394359902373e-06 
7.000000e-01  1.128123599418773e-05 
7.050000e-01  1.432047731027600e-05 
7.100000e-01  1.808841863191844e-05 
7.150000e-01  2.334497799878190e-05 
7.200000e-01  2.896011229450440e-05 
7.250000e-01  3.283765266426153e-05 
7.300000e-01  3.498348721167767e-05 
7.350000e-01  3.521039293037579e-05 
7.400000e-01  3.347953750533842e-05 
7.450000e-01  2.985965942409454e-05 
7.500000e-01  2.453395408068469e-05 
7.550000e-01  1.771983693404926e-05 
7.600000e-01  1.018019479990417e-05 
7.650000e-01  6.577777228124411e-06 
7.700000e-01  4.296171323554906e-06 
7.750000e-01  2.467021987316461e-06 
7.800000e-01  8.449700612446319e-07 
7.850000e-01  -6.805946331047233e-07 
7.900000e-01  -2.182628816320555e-06 
7.950000e-01  -3.724380865443541e-06 
8.000000e-01  -5.374573134348377e-06 
8.050000e-01  -7.224353530498999e-06 
8.100000e-01  -9.374870435827811e-06 
8.150000e-01  -1.211027121343592e-05 
8.200000e-01  -1.416444881832422e-05 
8.250000e-01  -1.553129248543844e-05 
8.300000e-01  -1.619092128223812e-05 
8.350000e-01  -1.616702241109327e-05 
8.400000e-01  -1.553066006579661e-05 
8.450000e-01  -1.431182523436443e-05 
8.500000e-01  -1.288905854242888e-05 
8.550000e-01  -1.165898147668954e-05 
8.600000e-01  -1.061411030627850e-05 
8.650000e-01  -9.671697282251947e-06 
8.700000e-01  -8.780213307597240e-06 
8.750000e-01  -7.900174818885714e-06 
8.800000e-01  -6.993615900983987e-06 
8.850000e-01  -6.013423886406950e-06 
8.900000e-01  -4.876894057935667e-06 
8.950000e-01  -3.335713346754882e-06 
9.000000e-01  -4.629291401219012e-07 
9.050000e-01  2.434003065900853e-06 
9.100000e-01  4.634358621221405e-06 
9.150000e-01  6.131910882312265e-06 
9.200000e-01  6.855966694685467e-06 
9.250000e-01  6.838852083242454e-06 
9.300000e-01  5.798390207108360e-06 
9.350000e-01  3.923085857923291e-06 
9.400000e-01  1.970983583219437e-06 
9.450000e-01  1.403116114439140e-07 
9.500000e-01  -1.601495942516892e-06 
9.550000e-01  -3.310074845800261e-06 
9.600000e-01  -5.045367161311992e-06 
9.650000e-01  -6.876510771922047e-06 
9.700000e-01  -8.897332834225163e-06 
9.750000e-01  -1.126985798724942e-05 
9.800000e-01  -1.432210519784170e-05 
9.850000e-01  -1.875192107853470e-05 
9.900000e-01  -2.211685426969910e-05 
9.950000e-01  -2.423153319922446e-05 
1.000000e+00  -2.495126630710533e-05 
