TITLE ="t=553.288398" 
VARIABLES = "x"                 "mu" 
ZONE I=201, ZONETYPE=Ordered, DATAPACKING=POINT
0.000000e+00  1.471514681811283e-05 
5.000000e-03  1.471382726289013e-05 
1.000000e-02  1.471068934917274e-05 
1.500000e-02  1.470680060182896e-05 
2.000000e-02  1.470223094497717e-05 
2.500000e-02  1.469665616006324e-05 
3.000000e-02  1.468939666639948e-05 
3.500000e-02  1.467905134567048e-05 
4.000000e-02  1.466228998742346e-05 
4.500000e-02  1.462913004615383e-05 
5.000000e-02  1.453674849471829e-05 
5.500000e-02  1.413131838385569e-05 
6.000000e-02  1.371582858102336e-05 
6.500000e-02  1.361504327039206e-05 
7.000000e-02  1.357310210155000e-05 
7.500000e-02  1.354629793850119e-05 
8.000000e-02  1.352368736939361e-05 
8.500000e-02  1.350026509401563e-05 
9.000000e-02  1.347117686604260e-05 
9.500000e-02  1.342723236875109e-05 
1.000000e-01  1.334097081329516e-05 
1.050000e-01  1.308619932838766e-05 
1.100000e-01  1.195705420876852e-05 
1.150000e-01  1.081581470397334e-05 
1.200000e-01  1.054904902778292e-05 
1.250000e-01  1.044973447605534e-05 
1.300000e-01  1.039078531895512e-05 
1.350000e-01  1.034348960519681e-05 
1.400000e-01  1.029639253987693e-05 
1.450000e-01  1.024005123058148e-05 
1.500000e-01  1.015858043730198e-05 
1.550000e-01  1.000843366746298e-05 
1.600000e-01  9.606246001170022e-06 
1.650000e-01  7.939971698028072e-06 
1.700000e-01  4.462617876297583e-06 
1.750000e-01  1.065695975667542e-06 
1.800000e-01  -2.001104875617181e-06 
1.850000e-01  -2.829667107539567e-06 
1.900000e-01  -3.063556277163115e-06 
1.950000e-01  -3.163048449125323e-06 
2.000000e-01  -3.217680628762665e-06 
2.050000e-01  -3.252372494440975e-06 
2.100000e-01  -3.276127142971787e-06 
2.150000e-01  -3.292232819723805e-06 
2.200000e-01  -3.300084490718757e-06 
2.250000e-01  -3.290162489426136e-06 
2.300000e-01  -3.205360758840707e-06 
2.350000e-01  -2.889463414718835e-06 
2.400000e-01  -2.556703015084024e-06 
2.450000e-01  -2.226062038813246e-06 
2.500000e-01  -1.897324124277296e-06 
2.550000e-01  -1.554625208504611e-06 
2.600000e-01  -1.367269247713690e-06 
2.650000e-01  -1.321945016680425e-06 
2.700000e-01  -1.304678465974322e-06 
2.750000e-01  -1.294604697808622e-06 
2.800000e-01  -1.286825286927138e-06 
2.850000e-01  -1.279392407391607e-06 
2.900000e-01  -1.270792284635463e-06 
2.950000e-01  -1.258571001107330e-06 
3.000000e-01  -1.235878619253319e-06 
3.050000e-01  -1.172373178157226e-06 
3.100000e-01  -9.031555967593845e-07 
3.150000e-01  -4.400084432174255e-07 
3.200000e-01  4.135745434429454e-09 
3.250000e-01  4.518459893292227e-07 
3.300000e-01  8.959900527542639e-07 
3.350000e-01  1.359107445516765e-06 
3.400000e-01  1.609204707762332e-06 
3.450000e-01  1.669319792313002e-06 
3.500000e-01  1.691863264860449e-06 
3.550000e-01  1.704665016503263e-06 
3.600000e-01  1.714222292202200e-06 
3.650000e-01  1.723031850282389e-06 
3.700000e-01  1.732886072974998e-06 
3.750000e-01  1.746498653137800e-06 
3.800000e-01  1.771270477137414e-06 
3.850000e-01  1.839898457528554e-06 
3.900000e-01  2.129574952770101e-06 
3.950000e-01  2.622284970190194e-06 
4.000000e-01  3.094918171351335e-06 
4.050000e-01  3.570831130315892e-06 
4.100000e-01  4.046237973243672e-06 
4.150000e-01  4.521726471700220e-06 
4.200000e-01  4.997204911346300e-06 
4.250000e-01  5.472685716646799e-06 
4.300000e-01  5.948178352800199e-06 
4.350000e-01  6.423607560509555e-06 
4.400000e-01  6.899456295508663e-06 
4.450000e-01  7.372616763349531e-06 
4.500000e-01  7.862376201755241e-06 
4.550000e-01  8.211107236760685e-06 
4.600000e-01  8.291014081943501e-06 
4.650000e-01  8.314581828729354e-06 
4.700000e-01  8.324004107197879e-06 
4.750000e-01  8.327894771363951e-06 
4.800000e-01  8.328560997135635e-06 
4.850000e-01  8.326289995584208e-06 
4.900000e-01  8.319746624492821e-06 
4.950000e-01  8.303776144512533e-06 
5.000000e-01  8.255941709992851e-06 
5.050000e-01  8.051447152261993e-06 
5.100000e-01  7.568881527999025e-06 
5.150000e-01  7.100406287306769e-06 
5.200000e-01  6.629661348850725e-06 
5.250000e-01  6.159265772328427e-06 
5.300000e-01  5.688812341474573e-06 
5.350000e-01  5.218364963968253e-06 
5.400000e-01  4.747913543390365e-06 
5.450000e-01  4.277462046992367e-06 
5.500000e-01  3.806996191356851e-06 
5.550000e-01  3.336607351511500e-06 
5.600000e-01  2.865712646516946e-06 
5.650000e-01  2.398067365220351e-06 
5.700000e-01  1.910502654534198e-06 
5.750000e-01  1.647304471259826e-06 
5.800000e-01  1.586204785175997e-06 
5.850000e-01  1.565237711155708e-06 
5.900000e-01  1.555014321724696e-06 
5.950000e-01  1.548938729532233e-06 
6.000000e-01  1.544897379559842e-06 
6.050000e-01  1.542079800803600e-06 
6.100000e-01  1.540254246160635e-06 
6.150000e-01  1.539828606186582e-06 
6.200000e-01  1.543622800229098e-06 
6.250000e-01  1.567807800469486e-06 
6.300000e-01  1.611066397329942e-06 
6.350000e-01  1.652557084743058e-06 
6.400000e-01  1.694339202472023e-06 
6.450000e-01  1.736070614585828e-06 
6.500000e-01  1.777854514954068e-06 
6.550000e-01  1.819351158446638e-06 
6.600000e-01  1.862607706616534e-06 
6.650000e-01  1.888457065251498e-06 
6.700000e-01  1.895101060250452e-06 
6.750000e-01  1.897981297989806e-06 
6.800000e-01  1.899992612934301e-06 
6.850000e-01  1.901851597754291e-06 
6.900000e-01  1.903923343978968e-06 
6.950000e-01  1.906625459939589e-06 
7.000000e-01  1.910803312710409e-06 
7.050000e-01  1.918946823900487e-06 
7.100000e-01  1.942000863298265e-06 
7.150000e-01  2.040221874410073e-06 
7.200000e-01  2.223633564452396e-06 
7.250000e-01  2.399571817580254e-06 
7.300000e-01  2.576730294695260e-06 
7.350000e-01  2.753701106454928e-06 
7.400000e-01  2.930698198069178e-06 
7.450000e-01  3.107719772682925e-06 
7.500000e-01  3.284565015264588e-06 
7.550000e-01  3.462545815037937e-06 
7.600000e-01  3.632885553351745e-06 
7.650000e-01  3.682665354091224e-06 
7.700000e-01  3.693160227851651e-06 
7.750000e-01  3.694808159078073e-06 
7.800000e-01  3.693079178519487e-06 
7.850000e-01  3.689004654049850e-06 
7.900000e-01  3.682186577539627e-06 
7.950000e-01  3.670790538366697e-06 
8.000000e-01  3.649426358484274e-06 
8.050000e-01  3.598588396358591e-06 
8.100000e-01  3.418090272631852e-06 
8.150000e-01  2.741946584735839e-06 
8.200000e-01  1.981997375917893e-06 
8.250000e-01  1.233790148981424e-06 
8.300000e-01  4.838507756243661e-07 
8.350000e-01  -2.665861534603633e-07 
8.400000e-01  -1.011917953173293e-06 
8.450000e-01  -1.788746138533781e-06 
8.500000e-01  -2.198427540975435e-06 
8.550000e-01  -2.292823046650523e-06 
8.600000e-01  -2.324513788796894e-06 
8.650000e-01  -2.339151910825878e-06 
8.700000e-01  -2.346926429198567e-06 
8.750000e-01  -2.350914074373691e-06 
8.800000e-01  -2.351888373322525e-06 
8.850000e-01  -2.348987375921141e-06 
8.900000e-01  -2.337716706752325e-06 
8.950000e-01  -2.296030591149521e-06 
9.000000e-01  -2.103114110292328e-06 
9.050000e-01  -1.776410138143422e-06 
9.100000e-01  -1.462969090914481e-06 
9.150000e-01  -1.147279195529513e-06 
9.200000e-01  -8.324652695750684e-07 
9.250000e-01  -5.141719268549079e-07 
9.300000e-01  -2.195028246780026e-07 
9.350000e-01  -1.357418425934734e-07 
9.400000e-01  -1.124912532008167e-07 
9.450000e-01  -1.026754139513834e-07 
9.500000e-01  -9.723382484644146e-08 
9.550000e-01  -9.367380072126270e-08 
9.600000e-01  -9.107001580162995e-08 
9.650000e-01  -8.900505520861182e-08 
9.700000e-01  -8.726915827177717e-08 
9.750000e-01  -8.578054672582045e-08 
9.800000e-01  -8.475500654553123e-08 
9.850000e-01  -8.461947083330321e-08 
9.900000e-01  -8.463320986111828e-08 
9.950000e-01  -8.463257550293416e-08 
1.000000e+00  -8.463339290773913e-08 
