TITLE ="t=453.288398" 
VARIABLES = "x"                 "phi" 
ZONE I=201, ZONETYPE=Ordered, DATAPACKING=POINT
0.000000e+00  9.961220762129001e-01 
5.000000e-03  9.905077877426467e-01 
1.000000e-02  9.494050261568195e-01 
1.500000e-02  8.645901900999323e-01 
2.000000e-02  7.433070420709310e-01 
2.500000e-02  5.974686240765720e-01 
3.000000e-02  4.417479361269353e-01 
3.500000e-02  2.919077778008722e-01 
4.000000e-02  1.630631256265221e-01 
4.500000e-02  6.798693063198347e-02 
5.000000e-02  1.539263439445661e-02 
5.500000e-02  3.620089750878069e-03 
6.000000e-02  1.509138260676282e-02 
6.500000e-02  6.722326049923881e-02 
7.000000e-02  1.618974305124286e-01 
7.500000e-02  2.904546586715193e-01 
8.000000e-02  4.401545597601848e-01 
8.500000e-02  5.958976908918991e-01 
9.000000e-02  7.419188465107938e-01 
9.500000e-02  8.635248839469817e-01 
1.000000e-01  9.487658870738960e-01 
1.050000e-01  9.903330300553820e-01 
1.100000e-01  9.961250758686040e-01 
1.150000e-01  9.906165165874214e-01 
1.200000e-01  9.498191133839363e-01 
1.250000e-01  8.652911583202966e-01 
1.300000e-01  7.442329953985920e-01 
1.350000e-01  5.985321436498622e-01 
1.400000e-01  4.428465871820584e-01 
1.450000e-01  2.929354860073797e-01 
1.500000e-01  1.639219532743949e-01 
1.550000e-01  6.859866117172705e-02 
1.600000e-01  1.571592598167159e-02 
1.650000e-01  4.408229982354635e-03 
1.700000e-01  4.832178320220795e-03 
1.750000e-01  4.643676769551296e-03 
1.800000e-01  5.525330333053329e-03 
1.850000e-01  3.039304061067451e-02 
1.900000e-01  9.941389874571038e-02 
1.950000e-01  2.082476793481718e-01 
2.000000e-01  3.464346908090467e-01 
2.050000e-01  5.001503525117529e-01 
2.100000e-01  6.538509754463881e-01 
2.150000e-01  7.919945177514426e-01 
2.200000e-01  9.007612205646786e-01 
2.250000e-01  9.696993809647434e-01 
2.300000e-01  9.944879216110599e-01 
2.350000e-01  9.953460579943197e-01 
2.400000e-01  9.952243879393611e-01 
2.450000e-01  9.952555116343257e-01 
2.500000e-01  9.951740781731454e-01 
2.550000e-01  9.956454028948998e-01 
2.600000e-01  9.872631785936098e-01 
2.650000e-01  9.390601375943393e-01 
2.700000e-01  8.478330074941000e-01 
2.750000e-01  7.217660973879352e-01 
2.800000e-01  5.733174797594199e-01 
2.850000e-01  4.174483316848978e-01 
2.900000e-01  2.699375135942685e-01 
2.950000e-01  1.456425790657311e-01 
3.000000e-01  5.681994796737976e-02 
3.050000e-01  1.130845556161703e-02 
3.100000e-01  4.355198264282214e-03 
3.150000e-01  4.825050030147527e-03 
3.200000e-01  4.748647414711500e-03 
3.250000e-01  4.748653091280196e-03 
3.300000e-01  4.825260186766325e-03 
3.350000e-01  4.354620459194813e-03 
3.400000e-01  1.272199316438619e-02 
3.450000e-01  6.089906084961627e-02 
3.500000e-01  1.521032219419277e-01 
3.550000e-01  2.781534015851569e-01 
3.600000e-01  4.265934170895410e-01 
3.650000e-01  5.824630311439903e-01 
3.700000e-01  7.299833203182045e-01 
3.750000e-01  8.542956683708490e-01 
3.800000e-01  9.431416450802654e-01 
3.850000e-01  9.886789573082281e-01 
3.900000e-01  9.956450003545839e-01 
3.950000e-01  9.951747768481454e-01 
4.000000e-01  9.952531560626230e-01 
4.050000e-01  9.952410727083773e-01 
4.100000e-01  9.952429943177936e-01 
4.150000e-01  9.952427243431272e-01 
4.200000e-01  9.952428030545738e-01 
4.250000e-01  9.952427861100147e-01 
4.300000e-01  9.952430477765999e-01 
4.350000e-01  9.952415776987008e-01 
4.400000e-01  9.952511733718586e-01 
4.450000e-01  9.951894333835890e-01 
4.500000e-01  9.955650484562536e-01 
4.550000e-01  9.917232763277957e-01 
4.600000e-01  9.538330385385325e-01 
4.650000e-01  8.720142028870753e-01 
4.700000e-01  7.530294357773020e-01 
4.750000e-01  6.085276206937960e-01 
4.800000e-01  4.530340245301274e-01 
4.850000e-01  3.022868243243157e-01 
4.900000e-01  1.715015383586798e-01 
4.950000e-01  7.367117124749425e-02 
5.000000e-01  1.787924477831372e-02 
5.050000e-01  4.494350121234611e-03 
5.100000e-01  4.801167709853771e-03 
5.150000e-01  4.751171078655868e-03 
5.200000e-01  4.758893293989415e-03 
5.250000e-01  4.757652929739033e-03 
5.300000e-01  4.757813260037056e-03 
5.350000e-01  4.757756154708420e-03 
5.400000e-01  4.757724823431908e-03 
5.450000e-01  4.757741870544836e-03 
5.500000e-01  4.757415839532161e-03 
5.550000e-01  4.759292186570912e-03 
5.600000e-01  4.747085823737557e-03 
5.650000e-01  4.825858620054154e-03 
5.700000e-01  4.353021671700256e-03 
5.750000e-01  1.239920721857371e-02 
5.800000e-01  5.999928451552138e-02 
5.850000e-01  1.506907086828366e-01 
5.900000e-01  2.763652543373973e-01 
5.950000e-01  4.246094759939271e-01 
6.000000e-01  5.804847933941180e-01 
6.050000e-01  7.282116805119773e-01 
6.100000e-01  8.529087129523226e-01 
6.150000e-01  9.422736656395578e-01 
6.200000e-01  9.883888229589636e-01 
6.250000e-01  9.956466832129888e-01 
6.300000e-01  9.951743847424046e-01 
6.350000e-01  9.952530608611897e-01 
6.400000e-01  9.952411964188679e-01 
6.450000e-01  9.952412126672429e-01 
6.500000e-01  9.952530177724195e-01 
6.550000e-01  9.951748026752365e-01 
6.600000e-01  9.956445738861697e-01 
6.650000e-01  9.887299505669747e-01 
6.700000e-01  9.432963696212924e-01 
6.750000e-01  8.545438308292376e-01 
6.800000e-01  7.303009570737685e-01 
6.850000e-01  5.828182458324416e-01 
6.900000e-01  4.269501497188318e-01 
6.950000e-01  2.784754161668116e-01 
7.000000e-01  1.523581070604878e-01 
7.050000e-01  6.106201782449176e-02 
7.100000e-01  1.278119477971632e-02 
7.150000e-01  4.354997602845429e-03 
7.200000e-01  4.825508368913965e-03 
7.250000e-01  4.747121077228835e-03 
7.300000e-01  4.759249136851479e-03 
7.350000e-01  4.757310643158696e-03 
7.400000e-01  4.757924004008655e-03 
7.450000e-01  4.755886346177260e-03 
7.500000e-01  4.768707005681981e-03 
7.550000e-01  4.687599112229148e-03 
7.600000e-01  5.246803488595771e-03 
7.650000e-01  2.790920517035541e-02 
7.700000e-01  9.460483357830594e-02 
7.750000e-01  2.015436708965056e-01 
7.800000e-01  3.384946920448986e-01 
7.850000e-01  4.917713426608689e-01 
7.900000e-01  6.458782774916206e-01 
7.950000e-01  7.852287696537354e-01 
8.000000e-01  8.958685417992431e-01 
8.050000e-01  9.671222587120726e-01 
8.100000e-01  9.941627733242625e-01 
8.150000e-01  9.953828877224605e-01 
8.200000e-01  9.952200418776922e-01 
8.250000e-01  9.952462793589341e-01 
8.300000e-01  9.952403366424072e-01 
8.350000e-01  9.952527870757214e-01 
8.400000e-01  9.951759192066534e-01 
8.450000e-01  9.956370196178715e-01 
8.500000e-01  9.864491688072538e-01 
8.550000e-01  9.368629532132259e-01 
8.600000e-01  8.444133834139550e-01 
8.650000e-01  7.174564647905447e-01 
8.700000e-01  5.685514034487571e-01 
8.750000e-01  4.127098468588287e-01 
8.800000e-01  2.657076777382603e-01 
8.850000e-01  1.423462793744049e-01 
8.900000e-01  5.477566408933608e-02 
8.950000e-01  1.065042671579943e-02 
9.000000e-01  4.362509952263794e-03 
9.050000e-01  4.823783523553369e-03 
9.100000e-01  4.747526272385697e-03 
9.150000e-01  4.756272015056314e-03 
9.200000e-01  4.774627696854439e-03 
9.250000e-01  4.647883726029594e-03 
9.300000e-01  5.564825580273021e-03 
9.350000e-01  3.074331253694813e-02 
9.400000e-01  1.000867713935778e-01 
9.450000e-01  2.091826426745572e-01 
9.500000e-01  3.475397147788202e-01 
9.550000e-01  5.013143803751897e-01 
9.600000e-01  6.549564206597197e-01 
9.650000e-01  7.929302152791310e-01 
9.700000e-01  9.014349264696185e-01 
9.750000e-01  9.700503083580861e-01 
9.800000e-01  9.945290980990049e-01 
9.850000e-01  9.953408373249235e-01 
9.900000e-01  9.952268387860435e-01 
9.950000e-01  9.952449881053558e-01 
1.000000e+00  9.952417308581886e-01 
