TITLE ="t=223.288398" 
VARIABLES = "x"                 "phi" 
ZONE I=201, ZONETYPE=Ordered, DATAPACKING=POINT
0.000000e+00  9.959591417801635e-01 
5.000000e-03  9.917924583694128e-01 
1.000000e-02  9.544499878197156e-01 
1.500000e-02  8.731304933150132e-01 
2.000000e-02  7.545228192744489e-01 
2.500000e-02  6.102327992932213e-01 
3.000000e-02  4.547622979897610e-01 
3.500000e-02  3.038468729691595e-01 
4.000000e-02  1.727203410054659e-01 
4.500000e-02  7.441344162943367e-02 
5.000000e-02  1.806690282853366e-02 
5.500000e-02  3.741613329876594e-03 
6.000000e-02  1.627794752407858e-02 
6.500000e-02  7.015630691504132e-02 
7.000000e-02  1.663427194855199e-01 
7.500000e-02  2.959752754090531e-01 
8.000000e-02  4.461920175897774e-01 
8.500000e-02  6.018364265286431e-01 
9.000000e-02  7.471540760666550e-01 
9.500000e-02  8.675295783049018e-01 
1.000000e-01  9.511539710956540e-01 
1.050000e-01  9.909681354106981e-01 
1.100000e-01  9.961056597237810e-01 
1.150000e-01  9.902908412785146e-01 
1.200000e-01  9.486028265119117e-01 
1.250000e-01  8.632549490060946e-01 
1.300000e-01  7.415727203983357e-01 
1.350000e-01  5.955150411323803e-01 
1.400000e-01  4.397792933749149e-01 
1.450000e-01  2.901300725387806e-01 
1.500000e-01  1.616614960512093e-01 
1.550000e-01  6.710444609759751e-02 
1.600000e-01  1.510539065766824e-02 
1.650000e-01  4.392286619665273e-03 
1.700000e-01  4.828853067218452e-03 
1.750000e-01  4.683551701999317e-03 
1.800000e-01  5.207321617733962e-03 
1.850000e-01  2.750049547452610e-02 
1.900000e-01  9.380053597469115e-02 
1.950000e-01  2.004151784999045e-01 
2.000000e-01  3.371528600086794e-01 
2.050000e-01  4.903509233243605e-01 
2.100000e-01  6.445227149806333e-01 
2.150000e-01  7.840744083026145e-01 
2.200000e-01  8.950293543394627e-01 
2.250000e-01  9.666748410558171e-01 
2.300000e-01  9.941018314819254e-01 
2.350000e-01  9.953895876243690e-01 
2.400000e-01  9.952174508644432e-01 
2.450000e-01  9.952556923185593e-01 
2.500000e-01  9.951796454929448e-01 
2.550000e-01  9.956130418252086e-01 
2.600000e-01  9.851794787930319e-01 
2.650000e-01  9.336007642697207e-01 
2.700000e-01  8.394055454131726e-01 
2.750000e-01  7.111907094104967e-01 
2.800000e-01  5.616582246642027e-01 
2.850000e-01  4.058891434705793e-01 
2.900000e-01  2.596515051434815e-01 
2.950000e-01  1.376622679906308e-01 
3.000000e-01  5.191474993679463e-02 
3.050000e-01  9.789360297640375e-03 
3.100000e-01  4.379915857885374e-03 
3.150000e-01  4.820404985829795e-03 
3.200000e-01  4.749221482504274e-03 
3.250000e-01  4.748558654961071e-03 
3.300000e-01  4.824749269121596e-03 
3.350000e-01  4.357385112044145e-03 
3.400000e-01  1.307055333993408e-02 
3.450000e-01  6.185229952456599e-02 
3.500000e-01  1.535920728816969e-01 
3.550000e-01  2.800332120152922e-01 
3.600000e-01  4.286750848806423e-01 
3.650000e-01  5.845351311076028e-01 
3.700000e-01  7.318354554244036e-01 
3.750000e-01  8.557417319028708e-01 
3.800000e-01  9.440417971210571e-01 
3.850000e-01  9.889732831123330e-01 
3.900000e-01  9.956423479151882e-01 
3.950000e-01  9.951753061642337e-01 
4.000000e-01  9.952531197145125e-01 
4.050000e-01  9.952411207011579e-01 
4.100000e-01  9.952430270961816e-01 
4.150000e-01  9.952427575840166e-01 
4.200000e-01  9.952428335858092e-01 
4.250000e-01  9.952428190934578e-01 
4.300000e-01  9.952430525282792e-01 
4.350000e-01  9.952417503571502e-01 
4.400000e-01  9.952502608809662e-01 
4.450000e-01  9.951955648278271e-01 
4.500000e-01  9.955302271822276e-01 
4.550000e-01  9.923655838116050e-01 
4.600000e-01  9.566823170495053e-01 
4.650000e-01  8.769494589613254e-01 
4.700000e-01  7.595838815799921e-01 
4.750000e-01  6.160478205129619e-01 
4.800000e-01  4.607598021044170e-01 
4.850000e-01  3.094356685475544e-01 
4.900000e-01  1.773548367321821e-01 
4.950000e-01  7.765663968250651e-02 
5.000000e-01  1.966758088659909e-02 
5.050000e-01  4.585585655086148e-03 
5.100000e-01  4.785709332546966e-03 
5.150000e-01  4.753550821399389e-03 
5.200000e-01  4.758506732446875e-03 
5.250000e-01  4.757687841090455e-03 
5.300000e-01  4.757771099022500e-03 
5.350000e-01  4.757714757045261e-03 
5.400000e-01  4.757672054964922e-03 
5.450000e-01  4.757679489204464e-03 
5.500000e-01  4.757344459798563e-03 
5.550000e-01  4.759205957564583e-03 
5.600000e-01  4.747022856859308e-03 
5.650000e-01  4.825567073626144e-03 
5.700000e-01  4.353969570773063e-03 
5.750000e-01  1.148830305559864e-02 
5.800000e-01  5.736068482327185e-02 
5.850000e-01  1.465077150598056e-01 
5.900000e-01  2.710433339671567e-01 
5.950000e-01  4.186837117063366e-01 
6.000000e-01  5.745569851767004e-01 
6.050000e-01  7.228838479741900e-01 
6.100000e-01  8.487165787858613e-01 
6.150000e-01  9.396237251906890e-01 
6.200000e-01  9.874663321092707e-01 
6.250000e-01  9.956464750759249e-01 
6.300000e-01  9.951743179851670e-01 
6.350000e-01  9.952529875784757e-01 
6.400000e-01  9.952411434866542e-01 
6.450000e-01  9.952411892559349e-01 
6.500000e-01  9.952529349590631e-01 
6.550000e-01  9.951752451425415e-01 
6.600000e-01  9.956421733582232e-01 
6.650000e-01  9.889847821023972e-01 
6.700000e-01  9.440777228520010e-01 
6.750000e-01  8.557998459487022e-01 
6.800000e-01  7.319102098481979e-01 
6.850000e-01  5.846190529717887e-01 
6.900000e-01  4.287596682299588e-01 
6.950000e-01  2.801098602410321e-01 
7.000000e-01  1.536530454243694e-01 
7.050000e-01  6.189160696762773e-02 
7.100000e-01  1.308519894006254e-02 
7.150000e-01  4.357531162239128e-03 
7.200000e-01  4.825062673885416e-03 
7.250000e-01  4.747188165598119e-03 
7.300000e-01  4.759224234556638e-03 
7.350000e-01  4.757268065301808e-03 
7.400000e-01  4.757970640784938e-03 
7.450000e-01  4.755247030090284e-03 
7.500000e-01  4.772375723242374e-03 
7.550000e-01  4.664283239873001e-03 
7.600000e-01  5.429404011038386e-03 
7.650000e-01  2.958824894661725e-02 
7.700000e-01  9.786862819542547e-02 
7.750000e-01  2.061007747324119e-01 
7.800000e-01  3.438972546767313e-01 
7.850000e-01  4.974770365215382e-01 
7.900000e-01  6.513113684157178e-01 
7.950000e-01  7.898434845643896e-01 
8.000000e-01  8.992102827802194e-01 
8.050000e-01  9.688881629930168e-01 
8.100000e-01  9.943901322946110e-01 
8.150000e-01  9.953573533194797e-01 
8.200000e-01  9.952240880999162e-01 
8.250000e-01  9.952454794876474e-01 
8.300000e-01  9.952404620294714e-01 
8.350000e-01  9.952516071513119e-01 
8.400000e-01  9.951824638980366e-01 
8.450000e-01  9.955997652726615e-01 
8.500000e-01  9.846739411567025e-01 
8.550000e-01  9.323484588455391e-01 
8.600000e-01  8.375035361941960e-01 
8.650000e-01  7.088244487666889e-01 
8.700000e-01  5.590657888243969e-01 
8.750000e-01  4.033336335499733e-01 
8.800000e-01  2.573920251001526e-01 
8.850000e-01  1.359252411005439e-01 
8.900000e-01  5.086686295942707e-02 
8.950000e-01  9.491767517863972e-03 
9.000000e-01  4.388053194936807e-03 
9.050000e-01  4.819002417292867e-03 
9.100000e-01  4.748177738705018e-03 
9.150000e-01  4.755639679269372e-03 
9.200000e-01  4.777211836910665e-03 
9.250000e-01  4.631482720494406e-03 
9.300000e-01  5.706591584578316e-03 
9.350000e-01  3.188293603150980e-02 
9.400000e-01  1.022548556902243e-01 
9.450000e-01  2.121832673871359e-01 
9.500000e-01  3.510774449972641e-01 
9.550000e-01  5.050339039628468e-01 
9.600000e-01  6.584824322162036e-01 
9.650000e-01  7.959087241852795e-01 
9.700000e-01  9.035730858692097e-01 
9.750000e-01  9.711565795776533e-01 
9.800000e-01  9.946536771118404e-01 
9.850000e-01  9.953252970467985e-01 
9.900000e-01  9.952292711116720e-01 
9.950000e-01  9.952445213936071e-01 
1.000000e+00  9.952417834735160e-01 
