TITLE ="t=583.288398" 
VARIABLES = "x"                 "phi" 
ZONE I=201, ZONETYPE=Ordered, DATAPACKING=POINT
0.000000e+00  9.961613575457349e-01 
5.000000e-03  9.901416373962519e-01 
1.000000e-02  9.480995401970872e-01 
1.500000e-02  8.624231235699904e-01 
2.000000e-02  7.404879358051525e-01 
2.500000e-02  5.942816137289401e-01 
3.000000e-02  4.385178034213323e-01 
3.500000e-02  2.889640016927222e-01 
4.000000e-02  1.607035548142987e-01 
4.500000e-02  6.644331947444805e-02 
5.000000e-02  1.478665337210523e-02 
5.500000e-02  3.608299932971874e-03 
6.000000e-02  1.450914484351853e-02 
6.500000e-02  6.572288210558708e-02 
7.000000e-02  1.595961941472448e-01 
7.500000e-02  2.875783329737757e-01 
8.000000e-02  4.369939881752753e-01 
8.500000e-02  5.927751037448145e-01 
9.000000e-02  7.391523282716084e-01 
9.500000e-02  8.613931707353584e-01 
1.000000e-01  9.474751098384259e-01 
1.050000e-01  9.899612626361251e-01 
1.100000e-01  9.961810222831217e-01 
1.150000e-01  9.899295872303717e-01 
1.200000e-01  9.473663504109794e-01 
1.250000e-01  8.612168026292097e-01 
1.300000e-01  7.389284178143797e-01 
1.350000e-01  5.925293377408801e-01 
1.400000e-01  4.367546177581485e-01 
1.450000e-01  2.873730643059259e-01 
1.500000e-01  1.594491872253435e-01 
1.550000e-01  6.565212860303142e-02 
1.600000e-01  1.452461795909285e-02 
1.650000e-01  4.374820952644268e-03 
1.700000e-01  4.847184783824795e-03 
1.750000e-01  4.583528980196832e-03 
1.800000e-01  6.062635745660795e-03 
1.850000e-01  3.447178263248613e-02 
1.900000e-01  1.071074144768025e-01 
1.950000e-01  2.188575003627618e-01 
2.000000e-01  3.589152687862324e-01 
2.050000e-01  5.132478027194034e-01 
2.100000e-01  6.662436467095117e-01 
2.150000e-01  8.024384585173064e-01 
2.200000e-01  9.082303333433320e-01 
2.250000e-01  9.735281020370598e-01 
2.300000e-01  9.948963009265935e-01 
2.350000e-01  9.952933339691726e-01 
2.400000e-01  9.952326883636828e-01 
2.450000e-01  9.952541308172483e-01 
2.500000e-01  9.951740268752227e-01 
2.550000e-01  9.956464649751904e-01 
2.600000e-01  9.874655346046575e-01 
2.650000e-01  9.396217782389789e-01 
2.700000e-01  8.487136956794107e-01 
2.750000e-01  7.228803277961746e-01 
2.800000e-01  5.745531771952527e-01 
2.850000e-01  4.186799850394715e-01 
2.900000e-01  2.710400420501280e-01 
2.950000e-01  1.465051602572150e-01 
3.000000e-01  5.735908696646366e-02 
3.050000e-01  1.148775417261160e-02 
3.100000e-01  4.354013560062055e-03 
3.150000e-01  4.825288997998652e-03 
3.200000e-01  4.748629390472813e-03 
3.250000e-01  4.748672331641015e-03 
3.300000e-01  4.825254018877227e-03 
3.350000e-01  4.354698767598998e-03 
3.400000e-01  1.273345366240084e-02 
3.450000e-01  6.093066663189910e-02 
3.500000e-01  1.521526888455835e-01 
3.550000e-01  2.782159213725396e-01 
3.600000e-01  4.266626995970625e-01 
3.650000e-01  5.825320399517516e-01 
3.700000e-01  7.300450496332241e-01 
3.750000e-01  8.543439174727590e-01 
3.800000e-01  9.431717501372719e-01 
3.850000e-01  9.886889035317734e-01 
3.900000e-01  9.956449239110461e-01 
3.950000e-01  9.951747882560616e-01 
4.000000e-01  9.952531495355663e-01 
4.050000e-01  9.952410666625267e-01 
4.100000e-01  9.952429859209820e-01 
4.150000e-01  9.952427139903965e-01 
4.200000e-01  9.952427910193677e-01 
4.250000e-01  9.952427701990838e-01 
4.300000e-01  9.952430421019596e-01 
4.350000e-01  9.952414918653768e-01 
4.400000e-01  9.952515848480679e-01 
4.450000e-01  9.951865911400944e-01 
4.500000e-01  9.955809520405484e-01 
4.550000e-01  9.913729595075047e-01 
4.600000e-01  9.523977988185465e-01 
4.650000e-01  8.695634754402047e-01 
4.700000e-01  7.497962389567391e-01 
4.750000e-01  6.048348933442806e-01 
4.800000e-01  4.492554675582741e-01 
4.850000e-01  2.988054505430696e-01 
4.900000e-01  1.686674498941393e-01 
4.950000e-01  7.176126320651491e-02 
5.000000e-01  1.704847529208879e-02 
5.050000e-01  4.458867059231099e-03 
5.100000e-01  4.807307958671798e-03 
5.150000e-01  4.750210655996399e-03 
5.200000e-01  4.759031497590991e-03 
5.250000e-01  4.757624751788357e-03 
5.300000e-01  4.757816635299642e-03 
5.350000e-01  4.757760174322152e-03 
5.400000e-01  4.757734351948762e-03 
5.450000e-01  4.757755909023464e-03 
5.500000e-01  4.757436072361440e-03 
5.550000e-01  4.759308577269914e-03 
5.600000e-01  4.747162198370614e-03 
5.650000e-01  4.825580055160866e-03 
5.700000e-01  4.354767091511230e-03 
5.750000e-01  1.274502622974170e-02 
5.800000e-01  6.096230454762933e-02 
5.850000e-01  1.522020179483413e-01 
5.900000e-01  2.782781086166195e-01 
5.950000e-01  4.267314739175788e-01 
6.000000e-01  5.826004177499178e-01 
6.050000e-01  7.301061030520705e-01 
6.100000e-01  8.543915401897524e-01 
6.150000e-01  9.432013814295814e-01 
6.200000e-01  9.886986321335494e-01 
6.250000e-01  9.956448236758118e-01 
6.300000e-01  9.951747648350279e-01 
6.350000e-01  9.952530394301179e-01 
6.400000e-01  9.952412311613646e-01 
6.450000e-01  9.952412359264482e-01 
6.500000e-01  9.952530247869907e-01 
6.550000e-01  9.951748946865611e-01 
6.600000e-01  9.956441569253924e-01 
6.650000e-01  9.887809713111090e-01 
6.700000e-01  9.434515395835735e-01 
6.750000e-01  8.547927763137397e-01 
6.800000e-01  7.306196031171848e-01 
6.850000e-01  5.831745778595708e-01 
6.900000e-01  4.273079910871488e-01 
6.950000e-01  2.787984268309459e-01 
7.000000e-01  1.526137961891595e-01 
7.050000e-01  6.122554461888781e-02 
7.100000e-01  1.284073497865336e-02 
7.150000e-01  4.355434999304501e-03 
7.200000e-01  4.825446898872378e-03 
7.250000e-01  4.747155081164744e-03 
7.300000e-01  4.759273208427227e-03 
7.350000e-01  4.757351961352792e-03 
7.400000e-01  4.757908434337773e-03 
7.450000e-01  4.756272582753416e-03 
7.500000e-01  4.766553082032287e-03 
7.550000e-01  4.701429077133489e-03 
7.600000e-01  5.143709476804109e-03 
7.650000e-01  2.688658401792741e-02 
7.700000e-01  9.259196452276316e-02 
7.750000e-01  1.987190294403222e-01 
7.800000e-01  3.351356239892217e-01 
7.850000e-01  4.882149979578828e-01 
7.900000e-01  6.424835720571127e-01 
7.950000e-01  7.823368795576741e-01 
8.000000e-01  8.937646970214203e-01 
8.050000e-01  9.659982774120502e-01 
8.100000e-01  9.940074598867960e-01 
8.150000e-01  9.953992598937526e-01 
8.200000e-01  9.952174171016992e-01 
8.250000e-01  9.952467731643679e-01 
8.300000e-01  9.952403120079309e-01 
8.350000e-01  9.952530874676736e-01 
8.400000e-01  9.951745978071753e-01 
8.450000e-01  9.956447830207457e-01 
8.500000e-01  9.871820822156648e-01 
8.550000e-01  9.388368043109482e-01 
8.600000e-01  8.474835051304942e-01 
8.650000e-01  7.213243553227051e-01 
8.700000e-01  5.728279251378999e-01 
8.750000e-01  4.169606851850625e-01 
8.800000e-01  2.695012966970977e-01 
8.850000e-01  1.453016396340555e-01 
8.900000e-01  5.660728809163137e-02 
8.950000e-01  1.123835639026443e-02 
9.000000e-01  4.355701538031937e-03 
9.050000e-01  4.825104152562675e-03 
9.100000e-01  4.747372199033519e-03 
9.150000e-01  4.756500494009351e-03 
9.200000e-01  4.773717634561104e-03 
9.250000e-01  4.653757413018198e-03 
9.300000e-01  5.515687370138684e-03 
9.350000e-01  3.033226688563470e-02 
9.400000e-01  9.929988021095745e-02 
9.450000e-01  2.080907651725372e-01 
9.500000e-01  3.462502891798067e-01 
9.550000e-01  4.999568850745227e-01 
9.600000e-01  6.536678263155707e-01 
9.650000e-01  7.918399090105382e-01 
9.700000e-01  9.006501680140073e-01 
9.750000e-01  9.696416534725431e-01 
9.800000e-01  9.944812013812462e-01 
9.850000e-01  9.953466393938651e-01 
9.900000e-01  9.952259262817155e-01 
9.950000e-01  9.952451623442569e-01 
1.000000e+00  9.952417105152487e-01 
