TITLE ="t=1003.288398" 
VARIABLES = "x"                 "phi" 
ZONE I=201, ZONETYPE=Ordered, DATAPACKING=POINT
0.000000e+00  9.962879116948503e-01 
5.000000e-03  9.886852029656042e-01 
1.000000e-02  9.433122975275026e-01 
1.500000e-02  8.546153169017338e-01 
2.000000e-02  7.304182741685914e-01 
2.500000e-02  5.829668464997618e-01 
3.000000e-02  4.271122072509755e-01 
3.500000e-02  2.786317497894520e-01 
4.000000e-02  1.524902881744393e-01 
4.500000e-02  6.115453589183124e-02 
5.000000e-02  1.282493223184569e-02 
5.500000e-02  3.635939022096996e-03 
6.000000e-02  1.259068390755559e-02 
6.500000e-02  6.048539972830903e-02 
7.000000e-02  1.514350582566523e-01 
7.500000e-02  2.772935096381848e-01 
8.000000e-02  4.256262014621245e-01 
8.500000e-02  5.814846606904761e-01 
9.000000e-02  7.290910988279957e-01 
9.500000e-02  8.535772440174562e-01 
1.000000e-01  9.426645327711650e-01 
1.050000e-01  9.884723323083169e-01 
1.100000e-01  9.963228626790298e-01 
1.150000e-01  9.877457625906599e-01 
1.200000e-01  9.404779992032567e-01 
1.250000e-01  8.500826859934932e-01 
1.300000e-01  7.246273904366479e-01 
1.350000e-01  5.765008541926292e-01 
1.400000e-01  4.206287656436768e-01 
1.450000e-01  2.727903733350669e-01 
1.500000e-01  1.478794946433634e-01 
1.550000e-01  5.822279250024584e-02 
1.600000e-01  1.178038082911410e-02 
1.650000e-01  4.339764318260227e-03 
1.700000e-01  4.889436085660368e-03 
1.750000e-01  4.362601708143571e-03 
1.800000e-01  9.961110829686389e-03 
1.850000e-01  5.250026347600524e-02 
1.900000e-01  1.386265304773644e-01 
1.950000e-01  2.609018751922792e-01 
2.000000e-01  4.073002907808639e-01 
2.050000e-01  5.630870775900887e-01 
2.100000e-01  7.124922928085941e-01 
2.150000e-01  8.404489811670824e-01 
2.200000e-01  9.342844779736913e-01 
2.250000e-01  9.854511734762068e-01 
2.300000e-01  9.956190523035365e-01 
2.350000e-01  9.951792671812082e-01 
2.400000e-01  9.952504219404804e-01 
2.450000e-01  9.952511529848241e-01 
2.500000e-01  9.951752991225691e-01 
2.550000e-01  9.956413380987961e-01 
2.600000e-01  9.868115429829079e-01 
2.650000e-01  9.378298649279215e-01 
2.700000e-01  8.459135915409710e-01 
2.750000e-01  7.193440929719173e-01 
2.800000e-01  5.706365412209271e-01 
2.850000e-01  4.147807278694224e-01 
2.900000e-01  2.675540646865128e-01 
2.950000e-01  1.437827161406223e-01 
3.000000e-01  5.566343114765437e-02 
3.050000e-01  1.093192366079549e-02 
3.100000e-01  4.358819294198997e-03 
3.150000e-01  4.824337050599196e-03 
3.200000e-01  4.748712087225890e-03 
3.250000e-01  4.748559120768440e-03 
3.300000e-01  4.825473945030008e-03 
3.350000e-01  4.353225395874599e-03 
3.400000e-01  1.245505919086163e-02 
3.450000e-01  6.015647668625149e-02 
3.500000e-01  1.509381675353919e-01 
3.550000e-01  2.766790025105021e-01 
3.600000e-01  4.249579697787300e-01 
3.650000e-01  5.808326318724137e-01 
3.700000e-01  7.285235204003633e-01 
3.750000e-01  8.531531761618973e-01 
3.800000e-01  9.424270334257019e-01 
3.850000e-01  9.884405662701721e-01 
3.900000e-01  9.956464614947590e-01 
3.950000e-01  9.951744584736070e-01 
4.000000e-01  9.952531442771092e-01 
4.050000e-01  9.952410060129018e-01 
4.100000e-01  9.952429279563029e-01 
4.150000e-01  9.952426495424197e-01 
4.200000e-01  9.952427222297364e-01 
4.250000e-01  9.952426921429746e-01 
4.300000e-01  9.952429849497417e-01 
4.350000e-01  9.952412625524791e-01 
4.400000e-01  9.952524167171811e-01 
4.450000e-01  9.951804618463577e-01 
4.500000e-01  9.956146084775744e-01 
4.550000e-01  9.904172691741764e-01 
4.600000e-01  9.488090951665978e-01 
4.650000e-01  8.635363165090699e-01 
4.700000e-01  7.419067847320139e-01 
4.750000e-01  5.958727030438095e-01 
4.800000e-01  4.401285587525903e-01 
4.850000e-01  2.904396884329928e-01 
4.900000e-01  1.619044384924467e-01 
4.950000e-01  6.726108266562440e-02 
5.000000e-01  1.516750598209289e-02 
5.050000e-01  4.395944309721841e-03 
5.100000e-01  4.818347727516241e-03 
5.150000e-01  4.748434142063450e-03 
5.200000e-01  4.759237636248251e-03 
5.250000e-01  4.757535223876216e-03 
5.300000e-01  4.757788092062578e-03 
5.350000e-01  4.757736908343192e-03 
5.400000e-01  4.757725206613645e-03 
5.450000e-01  4.757758590408380e-03 
5.500000e-01  4.757456779168397e-03 
5.550000e-01  4.759308947783870e-03 
5.600000e-01  4.747386780466666e-03 
5.650000e-01  4.824436851195225e-03 
5.700000e-01  4.361408615839479e-03 
5.750000e-01  1.342860036755932e-02 
5.800000e-01  6.281271152263643e-02 
5.850000e-01  1.550841442762711e-01 
5.900000e-01  2.819117967861984e-01 
5.950000e-01  4.307511643400562e-01 
6.000000e-01  5.865978740849742e-01 
6.050000e-01  7.336754910297294e-01 
6.100000e-01  8.571743006742882e-01 
6.150000e-01  9.449286128575891e-01 
6.200000e-01  9.892565815049893e-01 
6.250000e-01  9.956388575679571e-01 
6.300000e-01  9.951759401956015e-01 
6.350000e-01  9.952529502583275e-01 
6.400000e-01  9.952413297943947e-01 
6.450000e-01  9.952413350331079e-01 
6.500000e-01  9.952529290187516e-01 
6.550000e-01  9.951761015796620e-01 
6.600000e-01  9.956380000556770e-01 
6.650000e-01  9.893169054147803e-01 
6.700000e-01  9.451201413088263e-01 
6.750000e-01  8.574847017585502e-01 
6.800000e-01  7.340748172727445e-01 
6.850000e-01  5.870460344336691e-01 
6.900000e-01  4.312026731484104e-01 
6.950000e-01  2.823208040858786e-01 
7.000000e-01  1.554094967781762e-01 
7.050000e-01  6.302275208970347e-02 
7.100000e-01  1.350776003068831e-02 
7.150000e-01  4.362453362727838e-03 
7.200000e-01  4.824276529774844e-03 
7.250000e-01  4.747452531062363e-03 
7.300000e-01  4.759353216190508e-03 
7.350000e-01  4.757508935845128e-03 
7.400000e-01  4.757870121635015e-03 
7.450000e-01  4.757528738055800e-03 
7.500000e-01  4.759591322151291e-03 
7.550000e-01  4.746609969621915e-03 
7.600000e-01  4.830835369910744e-03 
7.650000e-01  2.331899988328349e-02 
7.700000e-01  8.539460044784580e-02 
7.750000e-01  1.885212421562366e-01 
7.800000e-01  3.229374030756311e-01 
7.850000e-01  4.752407464134824e-01 
7.900000e-01  6.300434573639107e-01 
7.950000e-01  7.716825988933778e-01 
8.000000e-01  8.859496624119775e-01 
8.050000e-01  9.617422544157264e-01 
8.100000e-01  9.933395663162727e-01 
8.150000e-01  9.954609770406023e-01 
8.200000e-01  9.952072926038463e-01 
8.250000e-01  9.952485566765964e-01 
8.300000e-01  9.952402515826223e-01 
8.350000e-01  9.952533268445469e-01 
8.400000e-01  9.951747278007601e-01 
8.450000e-01  9.956452565721444e-01 
8.500000e-01  9.886456070095184e-01 
8.550000e-01  9.430408590439405e-01 
8.600000e-01  8.541342142779268e-01 
8.650000e-01  7.297768225991680e-01 
8.700000e-01  5.822322490574007e-01 
8.750000e-01  4.263617932425233e-01 
8.800000e-01  2.779444687348736e-01 
8.850000e-01  1.519380019426990e-01 
8.900000e-01  6.079359991734031e-02 
8.950000e-01  1.268386209902354e-02 
9.000000e-01  4.354355584093189e-03 
9.050000e-01  4.825520293529093e-03 
9.100000e-01  4.747441037268980e-03 
9.150000e-01  4.756653837845467e-03 
9.200000e-01  4.773437035673959e-03 
9.250000e-01  4.655940282415953e-03 
9.300000e-01  5.497884461805695e-03 
9.350000e-01  3.018095780199955e-02 
9.400000e-01  9.900946328372681e-02 
9.450000e-01  2.076873362779959e-01 
9.500000e-01  3.457735297523364e-01 
9.550000e-01  4.994546676995846e-01 
9.600000e-01  6.531908311537277e-01 
9.650000e-01  7.914360442534516e-01 
9.700000e-01  9.003591858607755e-01 
9.750000e-01  9.694897650987656e-01 
9.800000e-01  9.944631353218741e-01 
9.850000e-01  9.953488024974587e-01 
9.900000e-01  9.952255843368296e-01 
9.950000e-01  9.952452263420979e-01 
1.000000e+00  9.952417018436418e-01 
