TITLE ="t=393.288398" 
VARIABLES = "x"                 "phi" 
ZONE I=201, ZONETYPE=Ordered, DATAPACKING=POINT
0.000000e+00  9.960981396224227e-01 
5.000000e-03  9.907179595297178e-01 
1.000000e-02  9.501774055329877e-01 
1.500000e-02  8.658803796810243e-01 
2.000000e-02  7.449905467996719e-01 
2.500000e-02  5.993759046644389e-01 
3.000000e-02  4.436847287958364e-01 
3.500000e-02  2.936766056595271e-01 
4.000000e-02  1.644850691573321e-01 
4.500000e-02  6.892229801391260e-02 
5.000000e-02  1.576694618972484e-02 
5.500000e-02  3.630963183819072e-03 
6.000000e-02  1.535894115510221e-02 
6.500000e-02  6.790021022681147e-02 
7.000000e-02  1.629302598345766e-01 
7.500000e-02  2.917419386873770e-01 
8.000000e-02  4.415660861721732e-01 
8.500000e-02  5.972895412852486e-01 
9.000000e-02  7.431492479571996e-01 
9.500000e-02  8.644699084003812e-01 
1.000000e-01  9.493342759987228e-01 
1.050000e-01  9.904913620971215e-01 
1.100000e-01  9.961065937112714e-01 
1.150000e-01  9.907852260013492e-01 
1.200000e-01  9.504472351250463e-01 
1.250000e-01  8.663437552741818e-01 
1.300000e-01  7.456093333537248e-01 
1.350000e-01  6.000944261903591e-01 
1.400000e-01  4.444364913288225e-01 
1.450000e-01  2.943916982024666e-01 
1.500000e-01  1.650979582966978e-01 
1.550000e-01  6.937968179537236e-02 
1.600000e-01  1.604032580955099e-02 
1.650000e-01  4.419204566877060e-03 
1.700000e-01  4.827560296298740e-03 
1.750000e-01  4.661676312542948e-03 
1.800000e-01  5.381625260704119e-03 
1.850000e-01  2.914270000924133e-02 
1.900000e-01  9.700505681253928e-02 
1.950000e-01  2.048964870319554e-01 
2.000000e-01  3.424707016344878e-01 
2.050000e-01  4.959715302709935e-01 
2.100000e-01  6.498789414654298e-01 
2.150000e-01  7.886281479837400e-01 
2.200000e-01  8.983318559033445e-01 
2.250000e-01  9.684261995075040e-01 
2.300000e-01  9.943325056156681e-01 
2.350000e-01  9.953642730272567e-01 
2.400000e-01  9.952214769397689e-01 
2.450000e-01  9.952559246267790e-01 
2.500000e-01  9.951744286443035e-01 
2.550000e-01  9.956430753016868e-01 
2.600000e-01  9.869659738413028e-01 
2.650000e-01  9.382469454417769e-01 
2.700000e-01  8.465627467122853e-01 
2.750000e-01  7.201621899316470e-01 
2.800000e-01  5.715412751636917e-01 
2.850000e-01  4.156802294437671e-01 
2.900000e-01  2.683570394076633e-01 
2.950000e-01  1.444085362137313e-01 
3.000000e-01  5.605166538028783e-02 
3.050000e-01  1.105708210565962e-02 
3.100000e-01  4.357443875238919e-03 
3.150000e-01  4.824611527987160e-03 
3.200000e-01  4.748690613632810e-03 
3.250000e-01  4.748632797406975e-03 
3.300000e-01  4.825232874029469e-03 
3.350000e-01  4.354732882028960e-03 
3.400000e-01  1.274003475177462e-02 
3.450000e-01  6.094887330818961e-02 
3.500000e-01  1.521812259510079e-01 
3.550000e-01  2.782520236151405e-01 
3.600000e-01  4.267027373049752e-01 
3.650000e-01  5.825719456887037e-01 
3.700000e-01  7.300807680990424e-01 
3.750000e-01  8.543718539883164e-01 
3.800000e-01  9.431891944514769e-01 
3.850000e-01  9.886946736896468e-01 
3.900000e-01  9.956448832023818e-01 
3.950000e-01  9.951748019693755e-01 
4.000000e-01  9.952531565533608e-01 
4.050000e-01  9.952410774941437e-01 
4.100000e-01  9.952429989737958e-01 
4.150000e-01  9.952427295866737e-01 
4.200000e-01  9.952428085987614e-01 
4.250000e-01  9.952427931227497e-01 
4.300000e-01  9.952430488847864e-01 
4.350000e-01  9.952416201064930e-01 
4.400000e-01  9.952509555180435e-01 
4.450000e-01  9.951909128874477e-01 
4.500000e-01  9.955567072623578e-01 
4.550000e-01  9.918906496620798e-01 
4.600000e-01  9.545462933872840e-01 
4.650000e-01  8.732408463000820e-01 
4.700000e-01  7.546531332866199e-01 
4.750000e-01  6.103863430932638e-01 
4.800000e-01  4.549397744172396e-01 
4.850000e-01  3.040464988370555e-01 
4.900000e-01  1.729382127977896e-01 
4.950000e-01  7.464442802955744e-02 
5.000000e-01  1.830937439488411e-02 
5.050000e-01  4.514474200742136e-03 
5.100000e-01  4.797716563286840e-03 
5.150000e-01  4.751706200826170e-03 
5.200000e-01  4.758811140054947e-03 
5.250000e-01  4.757664620147113e-03 
5.300000e-01  4.757807551372572e-03 
5.350000e-01  4.757750416838222e-03 
5.400000e-01  4.757716333358400e-03 
5.450000e-01  4.757731119595774e-03 
5.500000e-01  4.757402330111717e-03 
5.550000e-01  4.759278681009072e-03 
5.600000e-01  4.747054839604978e-03 
5.650000e-01  4.825923435292086e-03 
5.700000e-01  4.352535235952948e-03 
5.750000e-01  1.220408085995276e-02 
5.800000e-01  5.944708855751891e-02 
5.850000e-01  1.498204924369528e-01 
5.900000e-01  2.752614571177478e-01 
5.950000e-01  4.233831056225645e-01 
6.000000e-01  5.792604031296453e-01 
6.050000e-01  7.271136094166081e-01 
6.100000e-01  8.520473445871974e-01 
6.150000e-01  9.417324356777661e-01 
6.200000e-01  9.882048803892945e-01 
6.250000e-01  9.956473158822532e-01 
6.300000e-01  9.951742466980205e-01 
6.350000e-01  9.952530628352839e-01 
6.400000e-01  9.952411805690159e-01 
6.450000e-01  9.952412038175825e-01 
6.500000e-01  9.952530075818675e-01 
6.550000e-01  9.951748214283495e-01 
6.600000e-01  9.956444508316588e-01 
6.650000e-01  9.887448886360768e-01 
6.700000e-01  9.433417598551580e-01 
6.750000e-01  8.546166391632254e-01 
6.800000e-01  7.303941413641585e-01 
6.850000e-01  5.829224414245853e-01 
6.900000e-01  4.270547752829201e-01 
6.950000e-01  2.785698438450244e-01 
7.000000e-01  1.524328365846493e-01 
7.050000e-01  6.110978895840277e-02 
7.100000e-01  1.279856015632187e-02 
7.150000e-01  4.355117902478444e-03 
7.200000e-01  4.825483295852233e-03 
7.250000e-01  4.747118178267240e-03 
7.300000e-01  4.759240077773150e-03 
7.350000e-01  4.757294773560949e-03 
7.400000e-01  4.757933288397041e-03 
7.450000e-01  4.755711916213239e-03 
7.500000e-01  4.769690839727304e-03 
7.550000e-01  4.681313729806063e-03 
7.600000e-01  5.294906127999177e-03 
7.650000e-01  2.836675575897309e-02 
7.700000e-01  9.549913877163457e-02 
7.750000e-01  2.027951199948113e-01 
7.800000e-01  3.399803494820162e-01 
7.850000e-01  4.933420845303028e-01 
7.900000e-01  6.473755981485271e-01 
7.950000e-01  7.865022278310625e-01 
8.000000e-01  8.967926220399216e-01 
8.050000e-01  9.676129839975613e-01 
8.100000e-01  9.942279668959894e-01 
8.150000e-01  9.953757619792463e-01 
8.200000e-01  9.952211765420248e-01 
8.250000e-01  9.952460603372181e-01 
8.300000e-01  9.952403559782582e-01 
8.350000e-01  9.952525751275296e-01 
8.400000e-01  9.951769971968434e-01 
8.450000e-01  9.956308310282854e-01 
8.500000e-01  9.860490459499643e-01 
8.550000e-01  9.358152259679893e-01 
8.600000e-01  8.427963446349037e-01 
8.650000e-01  7.154275003256043e-01 
8.700000e-01  5.663146675204295e-01 
8.750000e-01  4.104924711339634e-01 
8.800000e-01  2.637346993216924e-01 
8.850000e-01  1.408157473279216e-01 
8.900000e-01  5.383514276545805e-02 
8.950000e-01  1.035954026436483e-02 
9.000000e-01  4.367348547714898e-03 
9.050000e-01  4.822863762939589e-03 
9.100000e-01  4.747644625322294e-03 
9.150000e-01  4.756134655162844e-03 
9.200000e-01  4.775184411823160e-03 
9.250000e-01  4.644322232158346e-03 
9.300000e-01  5.595034606801433e-03 
9.350000e-01  3.099175324681495e-02 
9.400000e-01  1.005610997074818e-01 
9.450000e-01  2.098400805210147e-01 
9.500000e-01  3.483155551122136e-01 
9.550000e-01  5.021307107165904e-01 
9.600000e-01  6.557308735065992e-01 
9.650000e-01  7.935850338988043e-01 
9.700000e-01  9.019057087554199e-01 
9.750000e-01  9.702947928965229e-01 
9.800000e-01  9.945572657203702e-01 
9.850000e-01  9.953373809963810e-01 
9.900000e-01  9.952273812011265e-01 
9.950000e-01  9.952448842773649e-01 
1.000000e+00  9.952417427648990e-01 
