TITLE ="t=623.288398" 
VARIABLES = "x"                 "phi" 
ZONE I=201, ZONETYPE=Ordered, DATAPACKING=POINT
0.000000e+00  9.961728215847753e-01 
5.000000e-03  9.900290944667804e-01 
1.000000e-02  9.477077256276614e-01 
1.500000e-02  8.617760028058221e-01 
2.000000e-02  7.396481793583867e-01 
2.500000e-02  5.933339117189408e-01 
3.000000e-02  4.375587713038062e-01 
3.500000e-02  2.880914897971915e-01 
4.000000e-02  1.600058584249498e-01 
4.500000e-02  6.598894878301986e-02 
5.000000e-02  1.461110901121602e-02 
5.500000e-02  3.606713862786048e-03 
6.000000e-02  1.431331331928352e-02 
6.500000e-02  6.520970110984060e-02 
7.000000e-02  1.588053873984010e-01 
7.500000e-02  2.865874550086505e-01 
8.000000e-02  4.359032458695690e-01 
8.500000e-02  5.916957322473385e-01 
9.000000e-02  7.381943230616926e-01 
9.500000e-02  8.606531185405532e-01 
1.000000e-01  9.470246934863825e-01 
1.050000e-01  9.898284621082013e-01 
1.100000e-01  9.962004458058346e-01 
1.150000e-01  9.896577139272932e-01 
1.200000e-01  9.464405280447026e-01 
1.250000e-01  8.596943923198351e-01 
1.300000e-01  7.369561686157664e-01 
1.350000e-01  5.903053385159606e-01 
1.400000e-01  4.345047433633484e-01 
1.450000e-01  2.853259852726560e-01 
1.500000e-01  1.578111372571828e-01 
1.550000e-01  6.458292920894651e-02 
1.600000e-01  1.410578128844516e-02 
1.650000e-01  4.365569781825390e-03 
1.700000e-01  4.852608949132410e-03 
1.750000e-01  4.559043627666261e-03 
1.800000e-01  6.312562967896275e-03 
1.850000e-01  3.612756037658006e-02 
1.900000e-01  1.101652326288043e-01 
1.950000e-01  2.230365653929187e-01 
2.000000e-01  3.638027175132864e-01 
2.050000e-01  5.183520740082610e-01 
2.100000e-01  6.710494271559928e-01 
2.150000e-01  8.064634081094207e-01 
2.200000e-01  9.110796407001980e-01 
2.250000e-01  9.749515186931319e-01 
2.300000e-01  9.950264296279060e-01 
2.350000e-01  9.952748988933929e-01 
2.400000e-01  9.952355522075214e-01 
2.450000e-01  9.952536320309648e-01 
2.500000e-01  9.951741059638206e-01 
2.550000e-01  9.956462458968283e-01 
2.600000e-01  9.874260385004072e-01 
2.650000e-01  9.395117540367472e-01 
2.700000e-01  8.485410310721192e-01 
2.750000e-01  7.226617942681069e-01 
2.800000e-01  5.743107562509508e-01 
2.850000e-01  4.184382950774574e-01 
2.900000e-01  2.708236201842901e-01 
2.950000e-01  1.463357507002541e-01 
3.000000e-01  5.725307841514156e-02 
3.050000e-01  1.145231852775211e-02 
3.100000e-01  4.354221845005624e-03 
3.150000e-01  4.825247436227803e-03 
3.200000e-01  4.748632858697530e-03 
3.250000e-01  4.748669976599332e-03 
3.300000e-01  4.825251544974417e-03 
3.350000e-01  4.354707291696822e-03 
3.400000e-01  1.273484399038462e-02 
3.450000e-01  6.093450529876444e-02 
3.500000e-01  1.521586998140853e-01 
3.550000e-01  2.782235206726520e-01 
3.600000e-01  4.266711224769101e-01 
3.650000e-01  5.825404305435469e-01 
3.700000e-01  7.300525555653901e-01 
3.750000e-01  8.543497841846174e-01 
3.800000e-01  9.431754100522647e-01 
3.850000e-01  9.886901116791416e-01 
3.900000e-01  9.956449141957119e-01 
3.950000e-01  9.951747888958006e-01 
4.000000e-01  9.952531475191705e-01 
4.050000e-01  9.952410642675350e-01 
4.100000e-01  9.952429827939191e-01 
4.150000e-01  9.952427101739336e-01 
4.200000e-01  9.952427865976013e-01 
4.250000e-01  9.952427645758624e-01 
4.300000e-01  9.952430391036081e-01 
4.350000e-01  9.952414669821807e-01 
4.400000e-01  9.952516946523122e-01 
4.450000e-01  9.951858180512337e-01 
4.500000e-01  9.955852483072836e-01 
4.550000e-01  9.912698621623551e-01 
4.600000e-01  9.519890320068065e-01 
4.650000e-01  8.688697508331483e-01 
4.700000e-01  7.488836551218567e-01 
4.750000e-01  6.037946707790832e-01 
4.800000e-01  4.481929239697777e-01 
4.850000e-01  2.978283239984962e-01 
4.900000e-01  1.678740201782010e-01 
4.950000e-01  7.122902307358263e-02 
5.000000e-01  1.682024130496331e-02 
5.050000e-01  4.449919079208321e-03 
5.100000e-01  4.808867031749783e-03 
5.150000e-01  4.749964574452750e-03 
5.200000e-01  4.759064587285963e-03 
5.250000e-01  4.757615752030776e-03 
5.300000e-01  4.757815823065828e-03 
5.350000e-01  4.757759697869684e-03 
5.400000e-01  4.757735451040035e-03 
5.450000e-01  4.757758303687306e-03 
5.500000e-01  4.757440358479105e-03 
5.550000e-01  4.759311128438583e-03 
5.600000e-01  4.747186107994391e-03 
5.650000e-01  4.825475065199480e-03 
5.700000e-01  4.355395778056950e-03 
5.750000e-01  1.283410601497216e-02 
5.800000e-01  6.120730017856814e-02 
5.850000e-01  1.525852394166902e-01 
5.900000e-01  2.787623273861085e-01 
5.950000e-01  4.272679808623601e-01 
6.000000e-01  5.831347237785257e-01 
6.050000e-01  7.305839569195682e-01 
6.100000e-01  8.547649259335423e-01 
6.150000e-01  9.434341849404351e-01 
6.200000e-01  9.887752761229931e-01 
6.250000e-01  9.956442065490400e-01 
6.300000e-01  9.951748881810136e-01 
6.350000e-01  9.952530307829413e-01 
6.400000e-01  9.952412416216602e-01 
6.450000e-01  9.952412439925550e-01 
6.500000e-01  9.952530233538585e-01 
6.550000e-01  9.951749533083538e-01 
6.600000e-01  9.956438713318626e-01 
6.650000e-01  9.888138750225984e-01 
6.700000e-01  9.435519406266477e-01 
6.750000e-01  8.549539819558957e-01 
6.800000e-01  7.308260256874920e-01 
6.850000e-01  5.834054779200073e-01 
6.900000e-01  4.275399256773194e-01 
6.950000e-01  2.790078410096409e-01 
7.000000e-01  1.527796241371753e-01 
7.050000e-01  6.133167382009953e-02 
7.100000e-01  1.287947834265470e-02 
7.150000e-01  4.355735127045030e-03 
7.200000e-01  4.825400147676575e-03 
7.250000e-01  4.747171808828890e-03 
7.300000e-01  4.759281369432553e-03 
7.350000e-01  4.757366025036726e-03 
7.400000e-01  4.757904510092931e-03 
7.450000e-01  4.756392769627801e-03 
7.500000e-01  4.765887242384199e-03 
7.550000e-01  4.705721558427663e-03 
7.600000e-01  5.112451878221504e-03 
7.650000e-01  2.656409783441817e-02 
7.700000e-01  9.195297618731782e-02 
7.750000e-01  1.978199847144419e-01 
7.800000e-01  3.340647618853668e-01 
7.850000e-01  4.870797980652159e-01 
7.900000e-01  6.413986162634674e-01 
7.950000e-01  7.814112395833586e-01 
8.000000e-01  8.930897294272195e-01 
8.050000e-01  9.656357037488013e-01 
8.100000e-01  9.939555474261806e-01 
8.150000e-01  9.954045491256917e-01 
8.200000e-01  9.952165637086879e-01 
8.250000e-01  9.952469303016429e-01 
8.300000e-01  9.952403071046048e-01 
8.350000e-01  9.952531469472449e-01 
8.400000e-01  9.951743971163614e-01 
8.450000e-01  9.956460262040949e-01 
8.500000e-01  9.873749226968036e-01 
8.550000e-01  9.393691958691432e-01 
8.600000e-01  8.483171068245595e-01 
8.650000e-01  7.223781961657540e-01 
8.700000e-01  5.739959982218515e-01 
8.750000e-01  4.181243575997119e-01 
8.800000e-01  2.705424117248177e-01 
8.850000e-01  1.461155782680984e-01 
8.900000e-01  5.711531111932934e-02 
8.950000e-01  1.140635099477688e-02 
9.000000e-01  4.354454455174212e-03 
9.050000e-01  4.825353992341398e-03 
9.100000e-01  4.747348219530793e-03 
9.150000e-01  4.756552289304197e-03 
9.200000e-01  4.773518266925970e-03 
9.250000e-01  4.655058791275873e-03 
9.300000e-01  5.504917197464581e-03 
9.350000e-01  3.024098526443342e-02 
9.400000e-01  9.912477038857069e-02 
9.450000e-01  2.078475768961357e-01 
9.500000e-01  3.459629468788000e-01 
9.550000e-01  4.996542408031922e-01 
9.600000e-01  6.533804169080784e-01 
9.650000e-01  7.915965949742616e-01 
9.700000e-01  9.004748904326725e-01 
9.750000e-01  9.695501898396567e-01 
9.800000e-01  9.944703408579182e-01 
9.850000e-01  9.953479419901992e-01 
9.900000e-01  9.952257210592073e-01 
9.950000e-01  9.952452014342336e-01 
1.000000e+00  9.952417058681480e-01 
