TITLE ="t=263.288398" 
VARIABLES = "x"                 "phi" 
ZONE I=201, ZONETYPE=Ordered, DATAPACKING=POINT
0.000000e+00  9.960076648181542e-01 
5.000000e-03  9.914418305683457e-01 
1.000000e-02  9.529886612644529e-01 
1.500000e-02  8.706287214254749e-01 
2.000000e-02  7.512196739162127e-01 
2.500000e-02  6.064595758179453e-01 
3.000000e-02  4.509022631143780e-01 
3.500000e-02  3.002927481922192e-01 
4.000000e-02  1.698310288882774e-01 
4.500000e-02  7.247280338724145e-02 
5.000000e-02  1.723468091603129e-02 
5.500000e-02  3.693429469712663e-03 
6.000000e-02  1.603967951552538e-02 
6.500000e-02  6.958401909680623e-02 
7.000000e-02  1.654825046758646e-01 
7.500000e-02  2.949116784975849e-01 
8.000000e-02  4.450325767744290e-01 
8.500000e-02  6.006992696316512e-01 
9.000000e-02  7.461549000880743e-01 
9.500000e-02  8.667688321296754e-01 
1.000000e-01  9.507047780850171e-01 
1.050000e-01  9.908552471714864e-01 
1.100000e-01  9.960961296142763e-01 
1.150000e-01  9.906048500751191e-01 
1.200000e-01  9.497536011751571e-01 
1.250000e-01  8.651759293310763e-01 
1.300000e-01  7.440794338826383e-01 
1.350000e-01  5.983560234556792e-01 
1.400000e-01  4.426661791636586e-01 
1.450000e-01  2.927695282227015e-01 
1.500000e-01  1.637875779901275e-01 
1.550000e-01  6.850940453782005e-02 
1.600000e-01  1.567919077583809e-02 
1.650000e-01  4.408488186509616e-03 
1.700000e-01  4.826270865417395e-03 
1.750000e-01  4.682271073106111e-03 
1.800000e-01  5.220383444367971e-03 
1.850000e-01  2.762975467028650e-02 
1.900000e-01  9.405456743445718e-02 
1.950000e-01  2.007714234782753e-01 
2.000000e-01  3.375763334216119e-01 
2.050000e-01  4.907991231593918e-01 
2.100000e-01  6.449504136588865e-01 
2.150000e-01  7.844386290999552e-01 
2.200000e-01  8.952941831335695e-01 
2.250000e-01  9.668161481537045e-01 
2.300000e-01  9.941211905931359e-01 
2.350000e-01  9.953875508879267e-01 
2.400000e-01  9.952177498337353e-01 
2.450000e-01  9.952560051112558e-01 
2.500000e-01  9.951774561026132e-01 
2.550000e-01  9.956254564073717e-01 
2.600000e-01  9.857486919488156e-01 
2.650000e-01  9.350410435246718e-01 
2.700000e-01  8.416067920903445e-01 
2.750000e-01  7.139384271659811e-01 
2.800000e-01  5.646759238941302e-01 
2.850000e-01  4.088704646933747e-01 
2.900000e-01  2.622940258562796e-01 
2.950000e-01  1.397009753165369e-01 
3.000000e-01  5.315362173446010e-02 
3.050000e-01  1.015354696738876e-02 
3.100000e-01  4.371454779409032e-03 
3.150000e-01  4.821969442835058e-03 
3.200000e-01  4.749013070196763e-03 
3.250000e-01  4.748573868917181e-03 
3.300000e-01  4.824958294062917e-03 
3.350000e-01  4.356207541880617e-03 
3.400000e-01  1.293890695348172e-02 
3.450000e-01  6.149442860449028e-02 
3.500000e-01  1.530340244352340e-01 
3.550000e-01  2.793292201858654e-01 
3.600000e-01  4.278959721971107e-01 
3.650000e-01  5.837600268316597e-01 
3.700000e-01  7.311430568674707e-01 
3.750000e-01  8.552016029378768e-01 
3.800000e-01  9.437061487873613e-01 
3.850000e-01  9.888643196836489e-01 
3.900000e-01  9.956434408114394e-01 
3.950000e-01  9.951750912308545e-01 
4.000000e-01  9.952531377939089e-01 
4.050000e-01  9.952411045092727e-01 
4.100000e-01  9.952430175827323e-01 
4.150000e-01  9.952427483236599e-01 
4.200000e-01  9.952428257163951e-01 
4.250000e-01  9.952428115664501e-01 
4.300000e-01  9.952430510833179e-01 
4.350000e-01  9.952417183889786e-01 
4.400000e-01  9.952504322522970e-01 
4.450000e-01  9.951944234189157e-01 
4.500000e-01  9.955367583030098e-01 
4.550000e-01  9.922553636041914e-01 
4.600000e-01  9.561705982659877e-01 
4.650000e-01  8.760561749529261e-01 
4.700000e-01  7.583932657203750e-01 
4.750000e-01  6.146784428927714e-01 
4.800000e-01  4.593499976622129e-01 
4.850000e-01  3.081281677302993e-01 
4.900000e-01  1.762810392049297e-01 
4.950000e-01  7.692156922743659e-02 
5.000000e-01  1.933252841192363e-02 
5.050000e-01  4.566994683112739e-03 
5.100000e-01  4.788819910599454e-03 
5.150000e-01  4.753075003470655e-03 
5.200000e-01  4.758587999954660e-03 
5.250000e-01  4.757684111226855e-03 
5.300000e-01  4.757782762213475e-03 
5.350000e-01  4.757726141663091e-03 
5.400000e-01  4.757685588791571e-03 
5.450000e-01  4.757694918752684e-03 
5.500000e-01  4.757361017463244e-03 
5.550000e-01  4.759228947865446e-03 
5.600000e-01  4.747018246468522e-03 
5.650000e-01  4.825757467100418e-03 
5.700000e-01  4.353070683081305e-03 
5.750000e-01  1.168153467433416e-02 
5.800000e-01  5.793396238325013e-02 
5.850000e-01  1.474219431570302e-01 
5.900000e-01  2.722099887175095e-01 
5.950000e-01  4.199855264513947e-01 
6.000000e-01  5.758617624396943e-01 
6.050000e-01  7.240590704150079e-01 
6.100000e-01  8.496440476090278e-01 
6.150000e-01  9.402134180928043e-01 
6.200000e-01  9.876763131812210e-01 
6.250000e-01  9.956472511647788e-01 
6.300000e-01  9.951741985544985e-01 
6.350000e-01  9.952530225251837e-01 
6.400000e-01  9.952411502809712e-01 
6.450000e-01  9.952411908035591e-01 
6.500000e-01  9.952529607619136e-01 
6.550000e-01  9.951750746598900e-01 
6.600000e-01  9.956430811521046e-01 
6.650000e-01  9.888967847215405e-01 
6.700000e-01  9.438061621383056e-01 
6.750000e-01  8.553626500920375e-01 
6.800000e-01  7.313496307522542e-01 
6.850000e-01  5.839914062353968e-01 
6.900000e-01  4.281286774756402e-01 
6.950000e-01  2.795396110003691e-01 
7.000000e-01  1.532009081389391e-01 
7.050000e-01  6.160152996651564e-02 
7.100000e-01  1.297832640725064e-02 
7.150000e-01  4.356544021496890e-03 
7.200000e-01  4.825233432966512e-03 
7.250000e-01  4.747156681153086e-03 
7.300000e-01  4.759226683280806e-03 
7.350000e-01  4.757271244762900e-03 
7.400000e-01  4.757960106385985e-03 
7.450000e-01  4.755350759519504e-03 
7.500000e-01  4.771765674210815e-03 
7.550000e-01  4.668135106028615e-03 
7.600000e-01  5.398434471610926e-03 
7.650000e-01  2.931404879197824e-02 
7.700000e-01  9.733893666610881e-02 
7.750000e-01  2.053630571073736e-01 
7.800000e-01  3.430240458389984e-01 
7.850000e-01  4.965560010054675e-01 
7.900000e-01  6.504354380800945e-01 
7.950000e-01  7.891006303231612e-01 
8.000000e-01  8.986736394456707e-01 
8.050000e-01  9.686062116986972e-01 
8.100000e-01  9.943551656185664e-01 
8.150000e-01  9.953614072813741e-01 
8.200000e-01  9.952234491450799e-01 
8.250000e-01  9.952456095999874e-01 
8.300000e-01  9.952404283747781e-01 
8.350000e-01  9.952518923007897e-01 
8.400000e-01  9.951807963315600e-01 
8.450000e-01  9.956092284122625e-01 
8.500000e-01  9.850306200299124e-01 
8.550000e-01  9.332296562556646e-01 
8.600000e-01  8.388408446005354e-01 
8.650000e-01  7.104874601044500e-01 
8.700000e-01  5.608871717334173e-01 
8.750000e-01  4.051285307828691e-01 
8.800000e-01  2.589784470613167e-01 
8.850000e-01  1.371442168576261e-01 
8.900000e-01  5.160144985778092e-02 
8.950000e-01  9.699338600673478e-03 
9.000000e-01  4.382205158138138e-03 
9.050000e-01  4.820083986132087e-03 
9.100000e-01  4.748024438976077e-03 
9.150000e-01  4.755769236902536e-03 
9.200000e-01  4.776678657506671e-03 
9.250000e-01  4.634841804434631e-03 
9.300000e-01  5.676997451204759e-03 
9.350000e-01  3.165039721589809e-02 
9.400000e-01  1.018140450144221e-01 
9.450000e-01  2.115740987638445e-01 
9.500000e-01  3.503599176855797e-01 
9.550000e-01  5.042800918335483e-01 
9.600000e-01  6.577683978024512e-01 
9.650000e-01  7.953061468310701e-01 
9.700000e-01  9.031411921361929e-01 
9.750000e-01  9.709339755020150e-01 
9.800000e-01  9.946292001939002e-01 
9.850000e-01  9.953284026467160e-01 
9.900000e-01  9.952287863363085e-01 
9.950000e-01  9.952446146184871e-01 
1.000000e+00  9.952417731274237e-01 
