TITLE ="t=0.065536" 
VARIABLES = "x"                 "phi" 
ZONE I=201, ZONETYPE=Ordered, DATAPACKING=POINT
0.000000e+00  5.359336986240573e-01 
5.000000e-03  5.349933765109746e-01 
1.000000e-02  5.322464937045385e-01 
1.500000e-02  5.279090935529196e-01 
2.000000e-02  5.223210832531957e-01 
2.500000e-02  5.159177884176044e-01 
3.000000e-02  5.091935944755294e-01 
3.500000e-02  5.026608110908833e-01 
4.000000e-02  4.968073234239602e-01 
4.500000e-02  4.920566951014266e-01 
5.000000e-02  4.887341433049120e-01 
5.500000e-02  4.870412405339372e-01 
6.000000e-02  4.870413739352921e-01 
6.500000e-02  4.886570022251668e-01 
7.000000e-02  4.916786938978525e-01 
7.500000e-02  4.957849081328973e-01 
8.000000e-02  5.005705808965915e-01 
8.500000e-02  5.055818783054548e-01 
9.000000e-02  5.103540347424680e-01 
9.500000e-02  5.144490386958150e-01 
1.000000e-01  5.174900698288429e-01 
1.050000e-01  5.191899993237552e-01 
1.100000e-01  5.193718866609099e-01 
1.150000e-01  5.179801664052128e-01 
1.200000e-01  5.150820404936106e-01 
1.250000e-01  5.108594034997971e-01 
1.300000e-01  5.055923698011986e-01 
1.350000e-01  4.996360916874202e-01 
1.400000e-01  4.933930128467239e-01 
1.450000e-01  4.872829572719648e-01 
1.500000e-01  4.817134882180067e-01 
1.550000e-01  4.770527856112315e-01 
1.600000e-01  4.736069097008773e-01 
1.650000e-01  4.716027948601816e-01 
1.700000e-01  4.711777175944143e-01 
1.750000e-01  4.723753780182956e-01 
1.800000e-01  4.751481871290385e-01 
1.850000e-01  4.793649099685143e-01 
1.900000e-01  4.848225057485405e-01 
1.950000e-01  4.912608419005770e-01 
2.000000e-01  4.983789374992225e-01 
2.050000e-01  5.058514984853786e-01 
2.100000e-01  5.133447179444295e-01 
2.150000e-01  5.205305956060950e-01 
2.200000e-01  5.270993415085274e-01 
2.250000e-01  5.327697271554654e-01 
2.300000e-01  5.372974947117620e-01 
2.350000e-01  5.404821009150594e-01 
2.400000e-01  5.421721404801149e-01 
2.450000e-01  5.422697619673839e-01 
2.500000e-01  5.407342705683307e-01 
2.550000e-01  5.375849333154564e-01 
2.600000e-01  5.329027986719331e-01 
2.650000e-01  5.268311548104430e-01 
2.700000e-01  5.195741186816929e-01 
2.750000e-01  5.113928037094919e-01 
2.800000e-01  5.025985774766056e-01 
2.850000e-01  4.935430949919264e-01 
2.900000e-01  4.846050622765977e-01 
2.950000e-01  4.761740163827983e-01 
3.000000e-01  4.686317575545501e-01 
3.050000e-01  4.623323902396128e-01 
3.100000e-01  4.575821816245007e-01 
3.150000e-01  4.546206020714496e-01 
3.200000e-01  4.536039592724940e-01 
3.250000e-01  4.545929767969524e-01 
3.300000e-01  4.575455025490200e-01 
3.350000e-01  4.623152669811727e-01 
3.400000e-01  4.686572465327163e-01 
3.450000e-01  4.762397308255650e-01 
3.500000e-01  4.846626628984728e-01 
3.550000e-01  4.934812618677801e-01 
3.600000e-01  5.022334091515810e-01 
3.650000e-01  5.104688551346535e-01 
3.700000e-01  5.177780485209510e-01 
3.750000e-01  5.238183481129371e-01 
3.800000e-01  5.283355558423735e-01 
3.850000e-01  5.311790867699805e-01 
3.900000e-01  5.323096178943710e-01 
3.950000e-01  5.317986725527454e-01 
4.000000e-01  5.298202407804611e-01 
4.050000e-01  5.266351554247011e-01 
4.100000e-01  5.225694950512415e-01 
4.150000e-01  5.179887305632781e-01 
4.200000e-01  5.132696411616973e-01 
4.250000e-01  5.087721718466371e-01 
4.300000e-01  5.048133751069432e-01 
4.350000e-01  5.016453751908144e-01 
4.400000e-01  4.994389331993023e-01 
4.450000e-01  4.982737096100025e-01 
4.500000e-01  4.981357629401303e-01 
4.550000e-01  4.989222391857375e-01 
4.600000e-01  5.004526461654465e-01 
4.650000e-01  5.024856155621701e-01 
4.700000e-01  5.047396719835029e-01 
4.750000e-01  5.069162818221423e-01 
4.800000e-01  5.087233615959734e-01 
4.850000e-01  5.098974871686248e-01 
4.900000e-01  5.102232471955889e-01 
4.950000e-01  5.095484975872508e-01 
5.000000e-01  5.077946604998705e-01 
5.050000e-01  5.049616298181748e-01 
5.100000e-01  5.011272563836755e-01 
5.150000e-01  4.964417582619613e-01 
5.200000e-01  4.911177106331681e-01 
5.250000e-01  4.854165014534094e-01 
5.300000e-01  4.796322855569071e-01 
5.350000e-01  4.740745309641005e-01 
5.400000e-01  4.690502329802159e-01 
5.450000e-01  4.648467864397123e-01 
5.500000e-01  4.617163713697591e-01 
5.550000e-01  4.598625425010365e-01 
5.600000e-01  4.594295385936112e-01 
5.650000e-01  4.604946606508936e-01 
5.700000e-01  4.630639204811316e-01 
5.750000e-01  4.670710375708962e-01 
5.800000e-01  4.723797607950594e-01 
5.850000e-01  4.787894045142376e-01 
5.900000e-01  4.860434055060758e-01 
5.950000e-01  4.938406175048839e-01 
6.000000e-01  5.018489567826242e-01 
6.050000e-01  5.097208938917865e-01 
6.100000e-01  5.171101590583835e-01 
6.150000e-01  5.236889038688604e-01 
6.200000e-01  5.291644563499192e-01 
6.250000e-01  5.332947381511132e-01 
6.300000e-01  5.359013973065082e-01 
6.350000e-01  5.368797596494710e-01 
6.400000e-01  5.362048224992997e-01 
6.450000e-01  5.339327061596097e-01 
6.500000e-01  5.301972371137554e-01 
6.550000e-01  5.252016511606151e-01 
6.600000e-01  5.192057584193480e-01 
6.650000e-01  5.125092811012324e-01 
6.700000e-01  5.054324275896463e-01 
6.750000e-01  4.982950653439133e-01 
6.800000e-01  4.913960617086888e-01 
6.850000e-01  4.849944418909313e-01 
6.900000e-01  4.792939443729186e-01 
6.950000e-01  4.744323291664562e-01 
7.000000e-01  4.704764251093469e-01 
7.050000e-01  4.674234176909876e-01 
7.100000e-01  4.652083214305471e-01 
7.150000e-01  4.637170025294338e-01 
7.200000e-01  4.628035741773683e-01 
7.250000e-01  4.623105329595181e-01 
7.300000e-01  4.620896883600889e-01 
7.350000e-01  4.620217953575846e-01 
7.400000e-01  4.620328543577063e-01 
7.450000e-01  4.621052969144774e-01 
7.500000e-01  4.622827141867891e-01 
7.550000e-01  4.626673735161346e-01 
7.600000e-01  4.634104564942932e-01 
7.650000e-01  4.646956773705385e-01 
7.700000e-01  4.667176356725179e-01 
7.750000e-01  4.696568540369738e-01 
7.800000e-01  4.736538907255908e-01 
7.850000e-01  4.787851472509112e-01 
7.900000e-01  4.850429817186564e-01 
7.950000e-01  4.923224732532712e-01 
8.000000e-01  5.004166691514976e-01 
8.050000e-01  5.090214161050497e-01 
8.100000e-01  5.177499892186638e-01 
8.150000e-01  5.261567728357807e-01 
8.200000e-01  5.337683184657599e-01 
8.250000e-01  5.401193132846165e-01 
8.300000e-01  5.447904277285142e-01 
8.350000e-01  5.474447305522929e-01 
8.400000e-01  5.478593831515827e-01 
8.450000e-01  5.459496362804235e-01 
8.500000e-01  5.417827150983731e-01 
8.550000e-01  5.355799498894438e-01 
8.600000e-01  5.277064463336029e-01 
8.650000e-01  5.186486402807380e-01 
8.700000e-01  5.089811765978753e-01 
8.750000e-01  4.993255905352926e-01 
8.800000e-01  4.903041329760043e-01 
8.850000e-01  4.824926500082440e-01 
8.900000e-01  4.763766164433310e-01 
8.950000e-01  4.723142004086147e-01 
9.000000e-01  4.705096302622547e-01 
9.050000e-01  4.709992221682301e-01 
9.100000e-01  4.736513086060982e-01 
9.150000e-01  4.781800906773921e-01 
9.200000e-01  4.841722189235966e-01 
9.250000e-01  4.911237806824353e-01 
9.300000e-01  4.984844280067920e-01 
9.350000e-01  5.057047091414596e-01 
9.400000e-01  5.122823473219855e-01 
9.450000e-01  5.178032929360005e-01 
9.500000e-01  5.219738636163946e-01 
9.550000e-01  5.246411355939627e-01 
9.600000e-01  5.257998688954775e-01 
9.650000e-01  5.255855217738712e-01 
9.700000e-01  5.242542106578263e-01 
9.750000e-01  5.221516814855753e-01 
9.800000e-01  5.196743710782100e-01 
9.850000e-01  5.172263654001128e-01 
9.900000e-01  5.151764385712337e-01 
9.950000e-01  5.138193427493968e-01 
1.000000e+00  5.133451087043621e-01 
