TITLE ="t=103.288398" 
VARIABLES = "x"                 "phi" 
ZONE I=201, ZONETYPE=Ordered, DATAPACKING=POINT
0.000000e+00  9.957827783735279e-01 
5.000000e-03  9.928993791394338e-01 
1.000000e-02  9.596570803943917e-01 
1.500000e-02  8.822484100520461e-01 
2.000000e-02  7.666956857265717e-01 
2.500000e-02  6.242513483663856e-01 
3.000000e-02  4.692130747190031e-01 
3.500000e-02  3.172693588962894e-01 
4.000000e-02  1.837678741412258e-01 
4.500000e-02  8.200729560777674e-02 
5.000000e-02  2.157355921522887e-02 
5.500000e-02  4.275286424337640e-03 
6.000000e-02  1.954389646160849e-02 
6.500000e-02  7.753919017748057e-02 
7.000000e-02  1.772392990076564e-01 
7.500000e-02  3.093198920220330e-01 
8.000000e-02  4.606421081397852e-01 
8.500000e-02  6.159269399613555e-01 
9.000000e-02  7.594590022050414e-01 
9.500000e-02  8.768202231664657e-01 
1.000000e-01  9.565484405934400e-01 
1.050000e-01  9.922137737479249e-01 
1.100000e-01  9.960835298641436e-01 
1.150000e-01  9.864547849490996e-01 
1.200000e-01  9.368308307320639e-01 
1.250000e-01  8.443463829317346e-01 
1.300000e-01  7.173620123963942e-01 
1.350000e-01  5.684402234485944e-01 
1.400000e-01  4.125946354607365e-01 
1.450000e-01  2.656016564079806e-01 
1.500000e-01  1.422617041435264e-01 
1.550000e-01  5.472235564082248e-02 
1.600000e-01  1.063344979743287e-02 
1.650000e-01  4.360137909650152e-03 
1.700000e-01  4.836740448424385e-03 
1.750000e-01  4.664673532598521e-03 
1.800000e-01  5.342789155731392e-03 
1.850000e-01  2.878809962394926e-02 
1.900000e-01  9.631766655237070e-02 
1.950000e-01  2.039379614337644e-01 
2.000000e-01  3.413353014505777e-01 
2.050000e-01  4.947732049072268e-01 
2.100000e-01  6.487385333098997e-01 
2.150000e-01  7.876601103577334e-01 
2.200000e-01  8.976314281965437e-01 
2.250000e-01  9.680567129485356e-01 
2.300000e-01  9.942854749516516e-01 
2.350000e-01  9.953694668790191e-01 
2.400000e-01  9.952209522142732e-01 
2.450000e-01  9.952530127391659e-01 
2.500000e-01  9.951930134002077e-01 
2.550000e-01  9.955372071576706e-01 
2.600000e-01  9.828500529090493e-01 
2.650000e-01  9.280028864956190e-01 
2.700000e-01  8.309813110303000e-01 
2.750000e-01  7.007622478800557e-01 
2.800000e-01  5.502746851533535e-01 
2.850000e-01  3.947053941888443e-01 
2.900000e-01  2.498007621978258e-01 
2.950000e-01  1.301305415790629e-01 
3.000000e-01  4.742236579178125e-02 
3.050000e-01  8.582246497266070e-03 
3.100000e-01  4.421086725695660e-03 
3.150000e-01  4.812956929934452e-03 
3.200000e-01  4.750272524591763e-03 
3.250000e-01  4.748609380936320e-03 
3.300000e-01  4.823247411610479e-03 
3.350000e-01  4.365963712668472e-03 
3.400000e-01  1.375469973240010e-02 
3.450000e-01  6.367364087782597e-02 
3.500000e-01  1.564160765376897e-01 
3.550000e-01  2.835851988099153e-01 
3.600000e-01  4.325976787082135e-01 
3.650000e-01  5.884299705353259e-01 
3.700000e-01  7.353071764203022e-01 
3.750000e-01  8.584416939122184e-01 
3.800000e-01  9.457093686427039e-01 
3.850000e-01  9.895006233177193e-01 
3.900000e-01  9.956351619857968e-01 
3.950000e-01  9.951766876373866e-01 
4.000000e-01  9.952529776193402e-01 
4.050000e-01  9.952412043788027e-01 
4.100000e-01  9.952430683590145e-01 
4.150000e-01  9.952427984572730e-01 
4.200000e-01  9.952428670977485e-01 
4.250000e-01  9.952428489985180e-01 
4.300000e-01  9.952430611715540e-01 
4.350000e-01  9.952418498047506e-01 
4.400000e-01  9.952497351896717e-01 
4.450000e-01  9.951990525043508e-01 
4.500000e-01  9.955101407973580e-01 
4.550000e-01  9.926813398232751e-01 
4.600000e-01  9.582089753160199e-01 
4.650000e-01  8.796327228161762e-01 
4.700000e-01  7.631714421620187e-01 
4.750000e-01  6.201827487487730e-01 
4.800000e-01  4.650246253942951e-01 
4.850000e-01  3.133987802995899e-01 
4.900000e-01  1.806180446834795e-01 
4.950000e-01  7.990068664560650e-02 
5.000000e-01  2.070394681543046e-02 
5.050000e-01  4.647329633141148e-03 
5.100000e-01  4.775523642917805e-03 
5.150000e-01  4.755101852660268e-03 
5.200000e-01  4.758230906879535e-03 
5.250000e-01  4.757690668548999e-03 
5.300000e-01  4.757723470948982e-03 
5.350000e-01  4.757668040147392e-03 
5.400000e-01  4.757618367249692e-03 
5.450000e-01  4.757619166171673e-03 
5.500000e-01  4.757283191939965e-03 
5.550000e-01  4.759106017504301e-03 
5.600000e-01  4.747125716926637e-03 
5.650000e-01  4.824296263120002e-03 
5.700000e-01  4.360413910988655e-03 
5.750000e-01  1.080034505835498e-02 
5.800000e-01  5.525099055802971e-02 
5.850000e-01  1.431163154749213e-01 
5.900000e-01  2.666980924545017e-01 
5.950000e-01  4.138211865017960e-01 
6.000000e-01  5.696708665686143e-01 
6.050000e-01  7.184703755484118e-01 
6.100000e-01  8.452197403840288e-01 
6.150000e-01  9.373833302594023e-01 
6.200000e-01  9.866450746356048e-01 
6.250000e-01  9.956395496273996e-01 
6.300000e-01  9.951755001976322e-01 
6.350000e-01  9.952527503159626e-01 
6.400000e-01  9.952411400170783e-01 
6.450000e-01  9.952411963103501e-01 
6.500000e-01  9.952527914650612e-01 
6.550000e-01  9.951762552388462e-01 
6.600000e-01  9.956367829958798e-01 
6.650000e-01  9.893956372930353e-01 
6.700000e-01  9.453717950322775e-01 
6.750000e-01  8.578931852756645e-01 
6.800000e-01  7.346007188991842e-01 
6.850000e-01  5.876365339876534e-01 
6.900000e-01  4.317978111556944e-01 
6.950000e-01  2.828601189881705e-01 
7.000000e-01  1.558387048125441e-01 
7.050000e-01  6.330008661334882e-02 
7.100000e-01  1.361265493522417e-02 
7.150000e-01  4.363873730011558e-03 
7.200000e-01  4.823958185521066e-03 
7.250000e-01  4.747392592410015e-03 
7.300000e-01  4.759217369281611e-03 
7.350000e-01  4.757274985861388e-03 
7.400000e-01  4.758009895392154e-03 
7.450000e-01  4.754971352047394e-03 
7.500000e-01  4.774053446003481e-03 
7.550000e-01  4.653759887247775e-03 
7.600000e-01  5.515735052030356e-03 
7.650000e-01  3.033224133176805e-02 
7.700000e-01  9.929964721676951e-02 
7.750000e-01  2.080902754632811e-01 
7.800000e-01  3.462495499916381e-01 
7.850000e-01  4.999559488332130e-01 
7.900000e-01  6.536667822220261e-01 
7.950000e-01  7.918388743823048e-01 
8.000000e-01  9.006492806366556e-01 
8.050000e-01  9.696410695751648e-01 
8.100000e-01  9.944810732354959e-01 
8.150000e-01  9.953465844900902e-01 
8.200000e-01  9.952257807092075e-01 
8.250000e-01  9.952451251114575e-01 
8.300000e-01  9.952406049926398e-01 
8.350000e-01  9.952505005258419e-01 
8.400000e-01  9.951891632417795e-01 
8.450000e-01  9.955616090317534e-01 
8.500000e-01  9.834873240256050e-01 
8.550000e-01  9.294936265377477e-01 
8.600000e-01  8.332058169100501e-01 
8.650000e-01  7.035032507339695e-01 
8.700000e-01  5.532564555042920e-01 
8.750000e-01  3.976255423982745e-01 
8.800000e-01  2.523635849789297e-01 
8.850000e-01  1.320798118761932e-01 
8.900000e-01  4.857229412962615e-02 
8.950000e-01  8.874139386843199e-03 
9.000000e-01  4.409061487875929e-03 
9.050000e-01  4.815160501094602e-03 
9.100000e-01  4.748738320316230e-03 
9.150000e-01  4.755214252134205e-03 
9.200000e-01  4.778975806813671e-03 
9.250000e-01  4.620449306215537e-03 
9.300000e-01  5.805917047620989e-03 
9.350000e-01  3.264428893544345e-02 
9.400000e-01  1.036925848420448e-01 
9.450000e-01  2.141669148330900e-01 
9.500000e-01  3.534115540709592e-01 
9.550000e-01  5.074839836328986e-01 
9.600000e-01  6.608012496498126e-01 
9.650000e-01  7.978635167415967e-01 
9.700000e-01  9.049717820253740e-01 
9.750000e-01  9.718744503712917e-01 
9.800000e-01  9.947306092219194e-01 
9.850000e-01  9.953153645868847e-01 
9.900000e-01  9.952308173883535e-01 
9.950000e-01  9.952442235577735e-01 
1.000000e+00  9.952418161786099e-01 
