TITLE ="t=643.288398" 
VARIABLES = "x"                 "phi" 
ZONE I=201, ZONETYPE=Ordered, DATAPACKING=POINT
0.000000e+00  9.961787086992736e-01 
5.000000e-03  9.899701870397065e-01 
1.000000e-02  9.475043075609973e-01 
1.500000e-02  8.614406259155115e-01 
2.000000e-02  7.392133401310028e-01 
2.500000e-02  5.928434726521400e-01 
3.000000e-02  4.370627371951127e-01 
3.500000e-02  2.876404753334747e-01 
4.000000e-02  1.596455066611416e-01 
4.500000e-02  6.575464031770435e-02 
5.000000e-02  1.452109133703332e-02 
5.500000e-02  3.606270255285792e-03 
6.000000e-02  1.421168338448988e-02 
6.500000e-02  6.494162325096231e-02 
7.000000e-02  1.583915350217634e-01 
7.500000e-02  2.860684128017859e-01 
8.000000e-02  4.353315108682905e-01 
8.500000e-02  5.911296206013152e-01 
9.000000e-02  7.376915380599249e-01 
9.500000e-02  8.602643675859273e-01 
1.000000e-01  9.467876590805256e-01 
1.050000e-01  9.897580198684881e-01 
1.100000e-01  9.962102021890679e-01 
1.150000e-01  9.895158570187287e-01 
1.200000e-01  9.459665383354905e-01 
1.250000e-01  8.589182075518473e-01 
1.300000e-01  7.359527074001696e-01 
1.350000e-01  5.891754429818822e-01 
1.400000e-01  4.333632100300893e-01 
1.450000e-01  2.842888670838159e-01 
1.500000e-01  1.569829360741478e-01 
1.550000e-01  6.404443232346940e-02 
1.600000e-01  1.389769236998367e-02 
1.650000e-01  4.361469243787258e-03 
1.700000e-01  4.855385248816718e-03 
1.750000e-01  4.545913937412371e-03 
1.800000e-01  6.455552186152822e-03 
1.850000e-01  3.702117471409712e-02 
1.900000e-01  1.118008336926600e-01 
1.950000e-01  2.252632613809605e-01 
2.000000e-01  3.664002634169297e-01 
2.050000e-01  5.210590642379357e-01 
2.100000e-01  6.735924815443644e-01 
2.150000e-01  8.085872685926588e-01 
2.200000e-01  9.125760940475167e-01 
2.250000e-01  9.756900333797235e-01 
2.300000e-01  9.950894195300578e-01 
2.350000e-01  9.952656651500266e-01 
2.400000e-01  9.952369808395621e-01 
2.450000e-01  9.952533812981719e-01 
2.500000e-01  9.951741595470168e-01 
2.550000e-01  9.956460556745034e-01 
2.600000e-01  9.873920544393754e-01 
2.650000e-01  9.394172589141231e-01 
2.700000e-01  8.483928017973261e-01 
2.750000e-01  7.224742273897510e-01 
2.800000e-01  5.741027184828462e-01 
2.850000e-01  4.182309142246700e-01 
2.900000e-01  2.706379519912139e-01 
2.950000e-01  1.461904516853079e-01 
3.000000e-01  5.716220659501683e-02 
3.050000e-01  1.142201374566175e-02 
3.100000e-01  4.354410163630958e-03 
3.150000e-01  4.825209731393216e-03 
3.200000e-01  4.748635914273010e-03 
3.250000e-01  4.748667163396365e-03 
3.300000e-01  4.825252201527656e-03 
3.350000e-01  4.354697481051263e-03 
3.400000e-01  1.273342934616358e-02 
3.450000e-01  6.093060543931983e-02 
3.500000e-01  1.521525963727411e-01 
3.550000e-01  2.782158065873740e-01 
3.600000e-01  4.266625735595186e-01 
3.650000e-01  5.825319147799494e-01 
3.700000e-01  7.300449373178147e-01 
3.750000e-01  8.543438286975853e-01 
3.800000e-01  9.431716932538970e-01 
3.850000e-01  9.886888831416167e-01 
3.900000e-01  9.956449231638522e-01 
3.950000e-01  9.951747864276496e-01 
4.000000e-01  9.952531466746969e-01 
4.050000e-01  9.952410627913933e-01 
4.100000e-01  9.952429810289055e-01 
4.150000e-01  9.952427080605156e-01 
4.200000e-01  9.952427841883321e-01 
4.250000e-01  9.952427615844239e-01 
4.300000e-01  9.952430373556046e-01 
4.350000e-01  9.952414547851890e-01 
4.400000e-01  9.952517466992954e-01 
4.450000e-01  9.951854488205998e-01 
4.500000e-01  9.955872954599383e-01 
4.550000e-01  9.912192530033199e-01 
4.600000e-01  9.517904892289665e-01 
4.650000e-01  8.685334774980490e-01 
4.700000e-01  7.484417129055891e-01 
4.750000e-01  6.032912462828052e-01 
4.800000e-01  4.476789939559728e-01 
4.850000e-01  2.973560041937418e-01 
4.900000e-01  1.674908189697792e-01 
4.950000e-01  7.097236249967127e-02 
5.000000e-01  1.671070890544010e-02 
5.050000e-01  4.445749760683814e-03 
5.100000e-01  4.809594874763581e-03 
5.150000e-01  4.749849308538091e-03 
5.200000e-01  4.759079701558087e-03 
5.250000e-01  4.757611244082068e-03 
5.300000e-01  4.757815169520398e-03 
5.350000e-01  4.757759232282836e-03 
5.400000e-01  4.757735752932485e-03 
5.450000e-01  4.757759238410320e-03 
5.500000e-01  4.757442229367484e-03 
5.550000e-01  4.759312081335457e-03 
5.600000e-01  4.747197953723740e-03 
5.650000e-01  4.825420943646126e-03 
5.700000e-01  4.355717053156406e-03 
5.750000e-01  1.287608129511751e-02 
5.800000e-01  6.132232560862304e-02 
5.850000e-01  1.527649879362678e-01 
5.900000e-01  2.789893345956190e-01 
5.950000e-01  4.275194107924641e-01 
6.000000e-01  5.833850406494773e-01 
6.050000e-01  7.308077452283283e-01 
6.100000e-01  8.549397002366114e-01 
6.150000e-01  9.435430444004202e-01 
6.200000e-01  9.888109622650069e-01 
6.250000e-01  9.956438976001671e-01 
6.300000e-01  9.951749496598268e-01 
6.350000e-01  9.952530263284644e-01 
6.400000e-01  9.952412467831211e-01 
6.450000e-01  9.952412481645030e-01 
6.500000e-01  9.952530220256469e-01 
6.550000e-01  9.951749875116948e-01 
6.600000e-01  9.956437028873214e-01 
6.650000e-01  9.888326605170180e-01 
6.700000e-01  9.436093765771727e-01 
6.750000e-01  8.550462460955003e-01 
6.800000e-01  7.309441974426423e-01 
6.850000e-01  5.835376847614279e-01 
6.900000e-01  4.276727449094117e-01 
6.950000e-01  2.791277836526211e-01 
7.000000e-01  1.528746244687674e-01 
7.050000e-01  6.139250059557354e-02 
7.100000e-01  1.290172064731567e-02 
7.150000e-01  4.355913450999710e-03 
7.200000e-01  4.825371936438287e-03 
7.250000e-01  4.747181174984420e-03 
7.300000e-01  4.759285515487495e-03 
7.350000e-01  4.757373228340393e-03 
7.400000e-01  4.757902649595518e-03 
7.450000e-01  4.756453002903871e-03 
7.500000e-01  4.765554024449636e-03 
7.550000e-01  4.707872507145588e-03 
7.600000e-01  5.096916713009804e-03 
7.650000e-01  2.640148553747925e-02 
7.700000e-01  9.162997043462337e-02 
7.750000e-01  1.973650787771284e-01 
7.800000e-01  3.335225972551316e-01 
7.850000e-01  4.865047902202756e-01 
7.900000e-01  6.408488069375813e-01 
7.950000e-01  7.809419077927965e-01 
8.000000e-01  8.927472074902794e-01 
8.050000e-01  9.654513462895475e-01 
8.100000e-01  9.939288074399912e-01 
8.150000e-01  9.954072388687406e-01 
8.200000e-01  9.952161287044761e-01 
8.250000e-01  9.952470098187345e-01 
8.300000e-01  9.952403048791234e-01 
8.350000e-01  9.952531721899688e-01 
8.400000e-01  9.951743242426812e-01 
8.450000e-01  9.956464946696656e-01 
8.500000e-01  9.874661933695627e-01 
8.550000e-01  9.396232295658502e-01 
8.600000e-01  8.487157162335947e-01 
8.650000e-01  7.228826756134484e-01 
8.700000e-01  5.745556049303318e-01 
8.750000e-01  4.186822560859368e-01 
8.800000e-01  2.710419513936020e-01 
8.850000e-01  1.465065552168185e-01 
8.900000e-01  5.735988619255897e-02 
8.950000e-01  1.148797791990610e-02 
9.000000e-01  4.353956780905415e-03 
9.050000e-01  4.825455511044902e-03 
9.100000e-01  4.747339687170794e-03 
9.150000e-01  4.756575035915056e-03 
9.200000e-01  4.773432579207177e-03 
9.250000e-01  4.655621238715213e-03 
9.300000e-01  5.500276320498277e-03 
9.350000e-01  3.020151628478151e-02 
9.400000e-01  9.904901355903178e-02 
9.450000e-01  2.077423437234610e-01 
9.500000e-01  3.458385894611634e-01 
9.550000e-01  4.995232457097765e-01 
9.600000e-01  6.532560016081180e-01 
9.650000e-01  7.914912530157177e-01 
9.700000e-01  9.003989876321137e-01 
9.750000e-01  9.695105607012212e-01 
9.800000e-01  9.944656192081344e-01 
9.850000e-01  9.953485068068814e-01 
9.900000e-01  9.952256320272594e-01 
9.950000e-01  9.952452183769130e-01 
1.000000e+00  9.952417038399641e-01 
