TITLE ="t=483.288398" 
VARIABLES = "x"                 "phi" 
ZONE I=201, ZONETYPE=Ordered, DATAPACKING=POINT
0.000000e+00  9.961320733021035e-01 
5.000000e-03  9.904172527898220e-01 
1.000000e-02  9.490776538785695e-01 
1.500000e-02  8.640451665909959e-01 
2.000000e-02  7.425970179584453e-01 
2.500000e-02  5.966651356428846e-01 
3.000000e-02  4.409328458552140e-01 
3.500000e-02  2.911642115604141e-01 
4.000000e-02  1.624663079743087e-01 
4.500000e-02  6.759548698576044e-02 
5.000000e-02  1.523756903563742e-02 
5.500000e-02  3.616293091019291e-03 
6.000000e-02  1.496090438233322e-02 
6.500000e-02  6.689027554011469e-02 
7.000000e-02  1.613881207474716e-01 
7.500000e-02  2.898190115072133e-01 
8.000000e-02  4.394568536286576e-01 
8.500000e-02  5.952090564078899e-01 
9.000000e-02  7.413094235537420e-01 
9.500000e-02  8.630560577661206e-01 
1.000000e-01  9.484829537112841e-01 
1.050000e-01  9.902528387605929e-01 
1.100000e-01  9.961364276167157e-01 
1.150000e-01  9.904921086682229e-01 
1.200000e-01  9.493620148815145e-01 
1.250000e-01  8.645273428342679e-01 
1.300000e-01  7.432356709661846e-01 
1.350000e-01  5.974012356642777e-01 
1.400000e-01  4.416967670922965e-01 
1.450000e-01  2.918834724693751e-01 
1.500000e-01  1.630736393643072e-01 
1.550000e-01  6.803685991743946e-02 
1.600000e-01  1.548475457896001e-02 
1.650000e-01  4.400931955887173e-03 
1.700000e-01  4.835143120746219e-03 
1.750000e-01  4.632464476602630e-03 
1.800000e-01  5.618330980943839e-03 
1.850000e-01  3.116084238090289e-02 
1.900000e-01  1.008807716097618e-01 
1.950000e-01  2.102813815152199e-01 
2.000000e-01  3.488350788556793e-01 
2.050000e-01  5.026763873343737e-01 
2.100000e-01  6.562477942867042e-01 
2.150000e-01  7.940214840789404e-01 
2.200000e-01  9.022189790367826e-01 
2.250000e-01  9.704570214749224e-01 
2.300000e-01  9.945756568453210e-01 
2.350000e-01  9.953353449317949e-01 
2.400000e-01  9.952260893773325e-01 
2.450000e-01  9.952552428576791e-01 
2.500000e-01  9.951740078536866e-01 
2.550000e-01  9.956459805959982e-01 
2.600000e-01  9.873601198685519e-01 
2.650000e-01  9.393283248975965e-01 
2.700000e-01  8.482531678001555e-01 
2.750000e-01  7.222974267851092e-01 
2.800000e-01  5.739065323271824e-01 
2.850000e-01  4.180352791019181e-01 
2.900000e-01  2.704627537400123e-01 
2.950000e-01  1.460533250200449e-01 
3.000000e-01  5.707645459875783e-02 
3.050000e-01  1.139346234615084e-02 
3.100000e-01  4.354593433023039e-03 
3.150000e-01  4.825170551130283e-03 
3.200000e-01  4.748637277360197e-03 
3.250000e-01  4.748660761829945e-03 
3.300000e-01  4.825263322054015e-03 
3.350000e-01  4.354620004583337e-03 
3.400000e-01  1.272164726596094e-02 
3.450000e-01  6.089809561737128e-02 
3.500000e-01  1.521017037064727e-01 
3.550000e-01  2.781514765877866e-01 
3.600000e-01  4.265912786563007e-01 
3.650000e-01  5.824608967151615e-01 
3.700000e-01  7.299814072958312e-01 
3.750000e-01  8.542941700392073e-01 
3.800000e-01  9.431407078390686e-01 
3.850000e-01  9.886786461407473e-01 
3.900000e-01  9.956450021954487e-01 
3.950000e-01  9.951747756191508e-01 
4.000000e-01  9.952531549251575e-01 
4.050000e-01  9.952410711286624e-01 
4.100000e-01  9.952429923751133e-01 
4.150000e-01  9.952427220131357e-01 
4.200000e-01  9.952428004238592e-01 
4.250000e-01  9.952427826338150e-01 
4.300000e-01  9.952430469413075e-01 
4.350000e-01  9.952415571757030e-01 
4.400000e-01  9.952512758042368e-01 
4.450000e-01  9.951887324999008e-01 
4.500000e-01  9.955689853473252e-01 
4.550000e-01  9.916406601836592e-01 
4.600000e-01  9.534877826584371e-01 
4.650000e-01  8.714225274591909e-01 
4.700000e-01  7.522475268326193e-01 
4.750000e-01  6.076335411367200e-01 
4.800000e-01  4.521182295765968e-01 
4.850000e-01  3.014421259022434e-01 
4.900000e-01  1.708128746011955e-01 
4.950000e-01  7.320583871914722e-02 
5.000000e-01  1.767518063670465e-02 
5.050000e-01  4.485216947396187e-03 
5.100000e-01  4.802741554904820e-03 
5.150000e-01  4.750926041703823e-03 
5.200000e-01  4.758929774651187e-03 
5.250000e-01  4.757646684052699e-03 
5.300000e-01  4.757815016649332e-03 
5.350000e-01  4.757757992347986e-03 
5.400000e-01  4.757727986445344e-03 
5.450000e-01  4.757746118129962e-03 
5.500000e-01  4.757421505905119e-03 
5.550000e-01  4.759297324281222e-03 
5.600000e-01  4.747102799068255e-03 
5.650000e-01  4.825807120892964e-03 
5.700000e-01  4.353361594571357e-03 
5.750000e-01  1.248764543039729e-02 
5.800000e-01  6.024741898889811e-02 
5.850000e-01  1.510808803419549e-01 
5.900000e-01  2.768595901459518e-01 
5.950000e-01  4.251582571061437e-01 
6.000000e-01  5.810322837829179e-01 
6.050000e-01  7.287022837092554e-01 
6.100000e-01  8.532931168391709e-01 
6.150000e-01  9.425146510707095e-01 
6.200000e-01  9.884699694294105e-01 
6.250000e-01  9.956462934240571e-01 
6.300000e-01  9.951744661895162e-01 
6.350000e-01  9.952530574083047e-01 
6.400000e-01  9.952412044641397e-01 
6.450000e-01  9.952412175843827e-01 
6.500000e-01  9.952530210697963e-01 
6.550000e-01  9.951748092757065e-01 
6.600000e-01  9.956445531750008e-01 
6.650000e-01  9.887326837821272e-01 
6.700000e-01  9.433046619719674e-01 
6.750000e-01  8.545571261951252e-01 
6.800000e-01  7.303179697055289e-01 
6.850000e-01  5.828372669301743e-01 
6.900000e-01  4.269692487980141e-01 
6.950000e-01  2.784926542945914e-01 
7.000000e-01  1.523717508137607e-01 
7.050000e-01  6.107074186388055e-02 
7.100000e-01  1.278436806019515e-02 
7.150000e-01  4.355021028600673e-03 
7.200000e-01  4.825507078365115e-03 
7.250000e-01  4.747125878364069e-03 
7.300000e-01  4.759254231628849e-03 
7.350000e-01  4.757319443979485e-03 
7.400000e-01  4.757919928551319e-03 
7.450000e-01  4.755974666987677e-03 
7.500000e-01  4.768211949780735e-03 
7.550000e-01  4.690769722919320e-03 
7.600000e-01  5.222839537798347e-03 
7.650000e-01  2.767679249432294e-02 
7.700000e-01  9.414910535443359e-02 
7.750000e-01  2.009051222403808e-01 
7.800000e-01  3.377360364051773e-01 
7.850000e-01  4.909687282496392e-01 
7.900000e-01  6.451127010034752e-01 
7.950000e-01  7.845771611435874e-01 
8.000000e-01  8.953951458310213e-01 
8.050000e-01  9.668701616297108e-01 
8.100000e-01  9.941286685946849e-01 
8.150000e-01  9.953865547609086e-01 
8.200000e-01  9.952194561602826e-01 
8.250000e-01  9.952463910333693e-01 
8.300000e-01  9.952403292582824e-01 
8.350000e-01  9.952528736622099e-01 
8.400000e-01  9.951755049508387e-01 
8.450000e-01  9.956394191965835e-01 
8.500000e-01  9.866338685462912e-01 
8.550000e-01  9.373534069872440e-01 
8.600000e-01  8.451732891892415e-01 
8.650000e-01  7.184118985975702e-01 
8.700000e-01  5.696062344415233e-01 
8.750000e-01  4.137569535320914e-01 
8.800000e-01  2.666407742151299e-01 
8.850000e-01  1.430716703926663e-01 
8.900000e-01  5.522334316177151e-02 
8.950000e-01  1.079152967829082e-02 
9.000000e-01  4.360520205296078e-03 
9.050000e-01  4.824165154602747e-03 
9.100000e-01  4.747479099500200e-03 
9.150000e-01  4.756333082383919e-03 
9.200000e-01  4.774381758023405e-03 
9.250000e-01  4.649463545061772e-03 
9.300000e-01  5.551525453952777e-03 
9.350000e-01  3.063291689405108e-02 
9.400000e-01  9.987569456043760e-02 
9.450000e-01  2.088899053591661e-01 
9.500000e-01  3.471941250426820e-01 
9.550000e-01  5.009506419959314e-01 
9.600000e-01  6.546112346486408e-01 
9.650000e-01  7.926382403681710e-01 
9.700000e-01  9.012248825544634e-01 
9.750000e-01  9.699410666260174e-01 
9.800000e-01  9.945163944449769e-01 
9.850000e-01  9.953423853782120e-01 
9.900000e-01  9.952265955658030e-01 
9.950000e-01  9.952450346048447e-01 
1.000000e+00  9.952417254781549e-01 
