TITLE ="t=193.288398" 
VARIABLES = "x"                 "phi" 
ZONE I=201, ZONETYPE=Ordered, DATAPACKING=POINT
0.000000e+00  9.959125819355031e-01 
5.000000e-03  9.921085547535181e-01 
1.000000e-02  9.558348618787841e-01 
1.500000e-02  8.755232594344193e-01 
2.000000e-02  7.576958167691491e-01 
2.500000e-02  6.138683876200718e-01 
3.000000e-02  4.584916745563459e-01 
3.500000e-02  3.072910161135425e-01 
4.000000e-02  1.755317677730265e-01 
4.500000e-02  7.631603799543028e-02 
5.000000e-02  1.890248383048030e-02 
5.500000e-02  3.799633704018401e-03 
6.000000e-02  1.647149060606643e-02 
6.500000e-02  7.061137521808332e-02 
7.000000e-02  1.670226912444823e-01 
7.500000e-02  2.968134575129331e-01 
8.000000e-02  4.471038169280036e-01 
8.500000e-02  6.027291083614770e-01 
9.000000e-02  7.479369873496269e-01 
9.500000e-02  8.681241935437736e-01 
1.000000e-01  9.515033467979458e-01 
1.050000e-01  9.910534514751672e-01 
1.100000e-01  9.961180849901168e-01 
1.150000e-01  9.899061909791584e-01 
1.200000e-01  9.472477200870945e-01 
1.250000e-01  8.610109643822272e-01 
1.300000e-01  7.386558615167388e-01 
1.350000e-01  5.922181796467504e-01 
1.400000e-01  4.364372467659740e-01 
1.450000e-01  2.870825442816157e-01 
1.500000e-01  1.592155942613151e-01 
1.550000e-01  6.549903658722464e-02 
1.600000e-01  1.446443602932296e-02 
1.650000e-01  4.377043925377093e-03 
1.700000e-01  4.831596478105396e-03 
1.750000e-01  4.682674718967817e-03 
1.800000e-01  5.210545644638596e-03 
1.850000e-01  2.753140386597216e-02 
1.900000e-01  9.386129195422256e-02 
1.950000e-01  2.005004111849643e-01 
2.000000e-01  3.372542061592505e-01 
2.050000e-01  4.904582106039405e-01 
2.100000e-01  6.446251122921367e-01 
2.150000e-01  7.841616196119831e-01 
2.200000e-01  8.950927732967963e-01 
2.250000e-01  9.667086850899362e-01 
2.300000e-01  9.941064749041750e-01 
2.350000e-01  9.953890783982503e-01 
2.400000e-01  9.952175707157521e-01 
2.450000e-01  9.952553051457675e-01 
2.500000e-01  9.951819213006418e-01 
2.550000e-01  9.956001754935330e-01 
2.600000e-01  9.846831745858162e-01 
2.650000e-01  9.323709341088285e-01 
2.700000e-01  8.375374782176402e-01 
2.750000e-01  7.088665555140504e-01 
2.800000e-01  5.591118441707470e-01 
2.850000e-01  4.033789882732106e-01 
2.900000e-01  2.574321049021905e-01 
2.950000e-01  1.359560478929605e-01 
3.000000e-01  5.088544403440598e-02 
3.050000e-01  9.497014190058807e-03 
3.100000e-01  4.387969414435768e-03 
3.150000e-01  4.818928717356182e-03 
3.200000e-01  4.749423679370785e-03 
3.250000e-01  4.748552969976789e-03 
3.300000e-01  4.824521869846224e-03 
3.350000e-01  4.358677814676530e-03 
3.400000e-01  1.319840688492232e-02 
3.450000e-01  6.219747150886872e-02 
3.500000e-01  1.541293159884853e-01 
3.550000e-01  2.807102992220246e-01 
3.600000e-01  4.294238972473315e-01 
3.650000e-01  5.852796182936221e-01 
3.700000e-01  7.325000336516118e-01 
3.750000e-01  8.562596418399638e-01 
3.800000e-01  9.443629975049582e-01 
3.850000e-01  9.890766778252177e-01 
3.900000e-01  9.956411889527391e-01 
3.950000e-01  9.951755320379616e-01 
4.000000e-01  9.952530989618192e-01 
4.050000e-01  9.952411362950228e-01 
4.100000e-01  9.952430356729569e-01 
4.150000e-01  9.952427659427456e-01 
4.200000e-01  9.952428405627994e-01 
4.250000e-01  9.952428255324450e-01 
4.300000e-01  9.952430540586721e-01 
4.350000e-01  9.952417748075181e-01 
4.400000e-01  9.952501304614986e-01 
4.450000e-01  9.951964318258949e-01 
4.500000e-01  9.955252521117121e-01 
4.550000e-01  9.924469072573797e-01 
4.600000e-01  9.570666369839598e-01 
4.650000e-01  8.776223615836263e-01 
4.700000e-01  7.604819920046672e-01 
4.750000e-01  6.170817362026845e-01 
4.800000e-01  4.618251027325861e-01 
4.850000e-01  3.104245202706496e-01 
4.900000e-01  1.781678727470672e-01 
4.950000e-01  7.821432971436271e-02 
5.000000e-01  1.992326835523411e-02 
5.050000e-01  4.600226868259986e-03 
5.100000e-01  4.783273867111880e-03 
5.150000e-01  4.753922581434177e-03 
5.200000e-01  4.758442074694180e-03 
5.250000e-01  4.757689772587097e-03 
5.300000e-01  4.757760983102685e-03 
5.350000e-01  4.757704868608353e-03 
5.400000e-01  4.757660499115904e-03 
5.450000e-01  4.757666420683658e-03 
5.500000e-01  4.757330760583274e-03 
5.550000e-01  4.759185673847035e-03 
5.600000e-01  4.747034136578859e-03 
5.650000e-01  4.825360642402468e-03 
5.700000e-01  4.354982609552972e-03 
5.750000e-01  1.133202798048840e-02 
5.800000e-01  5.689117564101277e-02 
5.850000e-01  1.457566692961899e-01 
5.900000e-01  2.700834318104340e-01 
5.950000e-01  4.176114218644686e-01 
6.000000e-01  5.734811905634214e-01 
6.050000e-01  7.219138100505078e-01 
6.100000e-01  8.479498694406863e-01 
6.150000e-01  9.391347981201600e-01 
6.200000e-01  9.872902471259716e-01 
6.250000e-01  9.956455054780196e-01 
6.300000e-01  9.951744768587965e-01 
6.350000e-01  9.952529500779641e-01 
6.400000e-01  9.952411397784144e-01 
6.450000e-01  9.952411891645261e-01 
6.500000e-01  9.952529099763302e-01 
6.550000e-01  9.951754165852966e-01 
6.600000e-01  9.956412609485508e-01 
6.650000e-01  9.890658711134156e-01 
6.700000e-01  9.443296569764201e-01 
6.750000e-01  8.562060871522830e-01 
6.800000e-01  7.324315109842415e-01 
6.850000e-01  5.852030499199846e-01 
6.900000e-01  4.293470720077617e-01 
6.950000e-01  2.806410131704726e-01 
7.000000e-01  1.540745087572273e-01 
7.050000e-01  6.216240524877156e-02 
7.100000e-01  1.318551670527031e-02 
7.150000e-01  4.358550422004796e-03 
7.200000e-01  4.824886110988023e-03 
7.250000e-01  4.747221172287171e-03 
7.300000e-01  4.759222720965581e-03 
7.350000e-01  4.757267290229901e-03 
7.400000e-01  4.757979352087774e-03 
7.450000e-01  4.755172529906653e-03 
7.500000e-01  4.772819594084255e-03 
7.550000e-01  4.661488324113664e-03 
7.600000e-01  5.452083753393957e-03 
7.650000e-01  2.978654355490770e-02 
7.700000e-01  9.825091275591875e-02 
7.750000e-01  2.066327539540910e-01 
7.800000e-01  3.445266136424975e-01 
7.850000e-01  4.981405890133933e-01 
7.900000e-01  6.519421632079435e-01 
7.950000e-01  7.903781741750675e-01 
8.000000e-01  8.995962365610272e-01 
8.050000e-01  9.690905508481362e-01 
8.100000e-01  9.944149244025544e-01 
8.150000e-01  9.953544500770475e-01 
8.200000e-01  9.952245450249165e-01 
8.250000e-01  9.952453853525266e-01 
8.300000e-01  9.952404915745451e-01 
8.350000e-01  9.952513668256602e-01 
8.400000e-01  9.951838924247548e-01 
8.450000e-01  9.955916522391035e-01 
8.500000e-01  9.843932164041928e-01 
8.550000e-01  9.316628445454003e-01 
8.600000e-01  8.364666449837286e-01 
8.650000e-01  7.075374275660052e-01 
8.700000e-01  5.576581311448144e-01 
8.750000e-01  4.019481846312051e-01 
8.800000e-01  2.561692250249006e-01 
8.850000e-01  1.349875708652306e-01 
8.900000e-01  5.030417124517807e-02 
8.950000e-01  9.335991269510881e-03 
9.000000e-01  4.392832145728149e-03 
9.050000e-01  4.818122801969600e-03 
9.100000e-01  4.748304058656182e-03 
9.150000e-01  4.755537971457150e-03 
9.200000e-01  4.777631639333292e-03 
9.250000e-01  4.628845996284474e-03 
9.300000e-01  5.730029522078772e-03 
9.350000e-01  3.206520254105649e-02 
9.400000e-01  1.025998115022330e-01 
9.450000e-01  2.126596499956311e-01 
9.500000e-01  3.516383257752751e-01 
9.550000e-01  5.056229403488106e-01 
9.600000e-01  6.590401872556489e-01 
9.650000e-01  7.963792084994983e-01 
9.700000e-01  9.039100625606116e-01 
9.750000e-01  9.713299568938378e-01 
9.800000e-01  9.946725367927660e-01 
9.850000e-01  9.953228863490268e-01 
9.900000e-01  9.952296469816360e-01 
9.950000e-01  9.952444490561786e-01 
1.000000e+00  9.952417914597008e-01 
