TITLE ="t=713.288398" 
VARIABLES = "x"                 "phi" 
ZONE I=201, ZONETYPE=Ordered, DATAPACKING=POINT
0.000000e+00  9.962004973337679e-01 
5.000000e-03  9.897450097798102e-01 
1.000000e-02  9.467368338895784e-01 
1.500000e-02  8.601788672154665e-01 
2.000000e-02  7.375796540884632e-01 
2.500000e-02  5.910026993959302e-01 
3.000000e-02  4.352025935558442e-01 
3.500000e-02  2.859507897920636e-01 
4.000000e-02  1.582972842593602e-01 
4.500000e-02  6.488022409468973e-02 
5.000000e-02  1.418820532635204e-02 
5.500000e-02  3.606763888302986e-03 
6.000000e-02  1.384148924223150e-02 
6.500000e-02  6.395463585308081e-02 
7.000000e-02  1.568633986743079e-01 
7.500000e-02  2.841489765629172e-01 
8.000000e-02  4.332149522653098e-01 
8.500000e-02  5.890318864022375e-01 
9.000000e-02  7.358265240929651e-01 
9.500000e-02  8.588202627809445e-01 
1.000000e-01  9.459046042576381e-01 
1.050000e-01  9.894923173541360e-01 
1.100000e-01  9.962431768679675e-01 
1.150000e-01  9.890123835684016e-01 
1.200000e-01  9.443301137667880e-01 
1.250000e-01  8.562549917269170e-01 
1.300000e-01  7.325202513975312e-01 
1.350000e-01  5.853189644524233e-01 
1.400000e-01  4.294747240425493e-01 
1.450000e-01  2.807638382951343e-01 
1.500000e-01  1.541766264122328e-01 
1.550000e-01  6.223047304763814e-02 
1.600000e-01  1.321135069400544e-02 
1.650000e-01  4.350341923797248e-03 
1.700000e-01  4.865086015905011e-03 
1.750000e-01  4.497196480199256e-03 
1.800000e-01  7.053007957683189e-03 
1.850000e-01  4.041407809953415e-02 
1.900000e-01  1.179206539964659e-01 
1.950000e-01  2.335413202770168e-01 
2.000000e-01  3.760160758757433e-01 
2.050000e-01  5.310438718111058e-01 
2.100000e-01  6.829372311552311e-01 
2.150000e-01  8.163537237560035e-01 
2.200000e-01  9.180034726667174e-01 
2.250000e-01  9.783107052249828e-01 
2.300000e-01  9.952880575496931e-01 
2.350000e-01  9.952351422648134e-01 
2.400000e-01  9.952416849408452e-01 
2.450000e-01  9.952525510506752e-01 
2.500000e-01  9.951744234594158e-01 
2.550000e-01  9.956449567348875e-01 
2.600000e-01  9.872203030064692e-01 
2.650000e-01  9.389424162793987e-01 
2.700000e-01  8.476490449642791e-01 
2.750000e-01  7.215338022914677e-01 
2.800000e-01  5.730602228549706e-01 
2.850000e-01  4.171922241366649e-01 
2.900000e-01  2.697085293935388e-01 
2.950000e-01  1.454636869351805e-01 
3.000000e-01  5.670840289702433e-02 
3.050000e-01  1.127167782474999e-02 
3.100000e-01  4.355487722651016e-03 
3.150000e-01  4.824995497675367e-03 
3.200000e-01  4.748654343306282e-03 
3.250000e-01  4.748649210078979e-03 
3.300000e-01  4.825268552958408e-03 
3.350000e-01  4.354569012960643e-03 
3.400000e-01  1.271396559491507e-02 
3.450000e-01  6.087689180807115e-02 
3.500000e-01  1.520685048357563e-01 
3.550000e-01  2.781095059053277e-01 
3.600000e-01  4.265447560679091e-01 
3.650000e-01  5.824145452344494e-01 
3.700000e-01  7.299399317644458e-01 
3.750000e-01  8.542617374647405e-01 
3.800000e-01  9.431204566330831e-01 
3.850000e-01  9.886719413383709e-01 
3.900000e-01  9.956450482622453e-01 
3.950000e-01  9.951747588866117e-01 
4.000000e-01  9.952531448669398e-01 
4.050000e-01  9.952410558100628e-01 
4.100000e-01  9.952429735965045e-01 
4.150000e-01  9.952426994197339e-01 
4.200000e-01  9.952427745981620e-01 
4.250000e-01  9.952427500980864e-01 
4.300000e-01  9.952430299250484e-01 
4.350000e-01  9.952414133017761e-01 
4.400000e-01  9.952519146061363e-01 
4.450000e-01  9.951842432979224e-01 
4.500000e-01  9.955939568890390e-01 
4.550000e-01  9.910471965574130e-01 
4.600000e-01  9.511254834815066e-01 
4.650000e-01  8.674103602727212e-01 
4.700000e-01  7.469676657318772e-01 
4.750000e-01  6.016136981431297e-01 
4.800000e-01  4.459678473335390e-01 
4.850000e-01  2.957848033375529e-01 
4.900000e-01  1.662176134290590e-01 
4.950000e-01  7.012146689689897e-02 
5.000000e-01  1.635008983020331e-02 
5.050000e-01  4.432602977123774e-03 
5.100000e-01  4.811895468272679e-03 
5.150000e-01  4.749483115057644e-03 
5.200000e-01  4.759125898059610e-03 
5.250000e-01  4.757595547402843e-03 
5.300000e-01  4.757811814991347e-03 
5.350000e-01  4.757756625750780e-03 
5.400000e-01  4.757735729689898e-03 
5.450000e-01  4.757761355046555e-03 
5.500000e-01  4.757447558022436e-03 
5.550000e-01  4.759314034918693e-03 
5.600000e-01  4.747238505007566e-03 
5.650000e-01  4.825226902455446e-03 
5.700000e-01  4.356857831780186e-03 
5.750000e-01  1.301104980577542e-02 
5.800000e-01  6.169040171389950e-02 
5.850000e-01  1.533394340238939e-01 
5.900000e-01  2.797143269188791e-01 
5.950000e-01  4.283220158693138e-01 
6.000000e-01  5.841837448228400e-01 
6.050000e-01  7.315214563341483e-01 
6.100000e-01  8.554967131622322e-01 
6.150000e-01  9.438895103673604e-01 
6.200000e-01  9.889238894254917e-01 
6.250000e-01  9.956428286763914e-01 
6.300000e-01  9.951751613473176e-01 
6.350000e-01  9.952530105133995e-01 
6.400000e-01  9.952412644353387e-01 
6.450000e-01  9.952412634357568e-01 
6.500000e-01  9.952530141594776e-01 
6.550000e-01  9.951751320228258e-01 
6.600000e-01  9.956429823408556e-01 
6.650000e-01  9.889085866528601e-01 
6.700000e-01  9.438423753703794e-01 
6.750000e-01  8.554208596994783e-01 
6.800000e-01  7.314242127220837e-01 
6.850000e-01  5.840748777139737e-01 
6.900000e-01  4.282125763507615e-01 
6.950000e-01  2.796154288307831e-01 
7.000000e-01  1.532610270606193e-01 
7.050000e-01  6.164010900061592e-02 
7.100000e-01  1.299254049932323e-02 
7.150000e-01  4.356687386500843e-03 
7.200000e-01  4.825247264390187e-03 
7.250000e-01  4.747219025018503e-03 
7.300000e-01  4.759300144336617e-03 
7.350000e-01  4.757399134800186e-03 
7.400000e-01  4.757896504381739e-03 
7.450000e-01  4.756664260295095e-03 
7.500000e-01  4.764386841452690e-03 
7.550000e-01  4.715420482992463e-03 
7.600000e-01  5.043063559836416e-03 
7.650000e-01  2.582504187892496e-02 
7.700000e-01  9.048050966959993e-02 
7.750000e-01  1.957437770959443e-01 
7.800000e-01  3.315885247227948e-01 
7.850000e-01  4.844520647386725e-01 
7.900000e-01  6.388846505805168e-01 
7.950000e-01  7.792638361450075e-01 
8.000000e-01  8.915209428985457e-01 
8.050000e-01  9.647893224478292e-01 
8.100000e-01  9.938308510127145e-01 
8.150000e-01  9.954168949096733e-01 
8.200000e-01  9.952145613475737e-01 
8.250000e-01  9.952472932934122e-01 
8.300000e-01  9.952402975775927e-01 
8.350000e-01  9.952532407494707e-01 
8.400000e-01  9.951741879611143e-01 
8.450000e-01  9.956474705463277e-01 
8.500000e-01  9.877606655390543e-01 
8.550000e-01  9.404522819700195e-01 
8.600000e-01  8.500204915384962e-01 
8.650000e-01  7.245365385485891e-01 
8.700000e-01  5.763922197108881e-01 
8.750000e-01  4.205150911746854e-01 
8.800000e-01  2.726848846157513e-01 
8.850000e-01  1.477944439629549e-01 
8.900000e-01  5.816801394673275e-02 
8.950000e-01  1.176111926544032e-02 
9.000000e-01  4.352795966558567e-03 
9.050000e-01  4.825702331366166e-03 
9.100000e-01  4.747325731348780e-03 
9.150000e-01  4.756638562417731e-03 
9.200000e-01  4.773205220514685e-03 
9.250000e-01  4.657131255497375e-03 
9.300000e-01  5.487863668275299e-03 
9.350000e-01  3.009554109506260e-02 
9.400000e-01  9.884547784628032e-02 
9.450000e-01  2.074595407921762e-01 
9.500000e-01  3.455043376764176e-01 
9.550000e-01  4.991711064149904e-01 
9.600000e-01  6.529215061455166e-01 
9.650000e-01  7.912079917986725e-01 
9.700000e-01  9.001948361377351e-01 
9.750000e-01  9.694039081270156e-01 
9.800000e-01  9.944528637091680e-01 
9.850000e-01  9.953500281283728e-01 
9.900000e-01  9.952253920587290e-01 
9.950000e-01  9.952452639691447e-01 
1.000000e+00  9.952416983155572e-01 
