TITLE ="t=0.008192" 
VARIABLES = "x"                 "phi" 
ZONE I=201, ZONETYPE=Ordered, DATAPACKING=POINT
0.000000e+00  5.215985501072731e-01 
5.000000e-03  5.210936320752687e-01 
1.000000e-02  5.196177096556492e-01 
1.500000e-02  5.172841705246659e-01 
2.000000e-02  5.142719804669307e-01 
2.500000e-02  5.108117643852066e-01 
3.000000e-02  5.071682171373203e-01 
3.500000e-02  5.036202056551626e-01 
4.000000e-02  5.004398455865715e-01 
4.500000e-02  4.978716819026383e-01 
5.000000e-02  4.961129590366826e-01 
5.500000e-02  4.952959380863682e-01 
6.000000e-02  4.954734129974981e-01 
6.500000e-02  4.966089954239571e-01 
7.000000e-02  4.985741708954528e-01 
7.500000e-02  5.011541921650245e-01 
8.000000e-02  5.040642073889868e-01 
8.500000e-02  5.069755285535075e-01 
9.000000e-02  5.095499243250277e-01 
9.500000e-02  5.114778589398081e-01 
1.000000e-01  5.125153242381557e-01 
1.050000e-01  5.125137341113986e-01 
1.100000e-01  5.114383175653757e-01 
1.150000e-01  5.093722783180891e-01 
1.200000e-01  5.065062304903531e-01 
1.250000e-01  5.031146136835741e-01 
1.300000e-01  4.995225871044497e-01 
1.350000e-01  4.960680887009927e-01 
1.400000e-01  4.930642127080117e-01 
1.450000e-01  4.907667578271571e-01 
1.500000e-01  4.893507412651079e-01 
1.550000e-01  4.888980095320342e-01 
1.600000e-01  4.893961630799211e-01 
1.650000e-01  4.907473630921455e-01 
1.700000e-01  4.927846475798481e-01 
1.750000e-01  4.952932464396385e-01 
1.800000e-01  4.980347192291640e-01 
1.850000e-01  5.007720203444307e-01 
1.900000e-01  5.032935080808409e-01 
1.950000e-01  5.054335884549137e-01 
2.000000e-01  5.070875667046016e-01 
2.050000e-01  5.082187382699241e-01 
2.100000e-01  5.088567822539546e-01 
2.150000e-01  5.090877853960515e-01 
2.200000e-01  5.090373468099723e-01 
2.250000e-01  5.088490231398317e-01 
2.300000e-01  5.086608909012168e-01 
2.350000e-01  5.085832490653914e-01 
2.400000e-01  5.086803768656110e-01 
2.450000e-01  5.089587157726213e-01 
2.500000e-01  5.093629534970644e-01 
2.550000e-01  5.097805312481463e-01 
2.600000e-01  5.100543251238594e-01 
2.650000e-01  5.100026585410037e-01 
2.700000e-01  5.094451216925328e-01 
2.750000e-01  5.082316760635669e-01 
2.800000e-01  5.062713249655397e-01 
2.850000e-01  5.035557397210949e-01 
2.900000e-01  5.001732365139362e-01 
2.950000e-01  4.963096747666582e-01 
3.000000e-01  4.922349642988640e-01 
3.050000e-01  4.882763442936970e-01 
3.100000e-01  4.847818317417010e-01 
3.150000e-01  4.820788481870135e-01 
3.200000e-01  4.804338619628216e-01 
3.250000e-01  4.800188608490762e-01 
3.300000e-01  4.808895513438307e-01 
3.350000e-01  4.829784173618784e-01 
3.400000e-01  4.861034275618318e-01 
3.450000e-01  4.899907283781298e-01 
3.500000e-01  4.943076216334408e-01 
3.550000e-01  4.987008811940914e-01 
3.600000e-01  5.028351422399410e-01 
3.650000e-01  5.064265857587866e-01 
3.700000e-01  5.092681743977523e-01 
3.750000e-01  5.112440007169039e-01 
3.800000e-01  5.123317370854972e-01 
3.850000e-01  5.125937109270642e-01 
3.900000e-01  5.121587164391103e-01 
3.950000e-01  5.111980374713806e-01 
4.000000e-01  5.098998412833349e-01 
4.050000e-01  5.084458037916511e-01 
4.100000e-01  5.069927052176125e-01 
4.150000e-01  5.056603695204394e-01 
4.200000e-01  5.045262712718910e-01 
4.250000e-01  5.036265136907130e-01 
4.300000e-01  5.029623660980884e-01 
4.350000e-01  5.025108111545894e-01 
4.400000e-01  5.022366886180727e-01 
4.450000e-01  5.021035333030868e-01 
4.500000e-01  5.020805527536171e-01 
4.550000e-01  5.021443778547100e-01 
4.600000e-01  5.022757804868776e-01 
4.650000e-01  5.024529105466116e-01 
4.700000e-01  5.026434310830444e-01 
4.750000e-01  5.027981966925991e-01 
4.800000e-01  5.028489008389285e-01 
4.850000e-01  5.027114139828202e-01 
4.900000e-01  5.022953155169309e-01 
4.950000e-01  5.015185164495876e-01 
5.000000e-01  5.003242787865895e-01 
5.050000e-01  4.986969189240725e-01 
5.100000e-01  4.966724529368041e-01 
5.150000e-01  4.943414313824229e-01 
5.200000e-01  4.918428584123831e-01 
5.250000e-01  4.893498697930558e-01 
5.300000e-01  4.870493402216924e-01 
5.350000e-01  4.851186110050097e-01 
5.400000e-01  4.837030335313187e-01 
5.450000e-01  4.828979779456752e-01 
5.500000e-01  4.827382873768400e-01 
5.550000e-01  4.831968594381383e-01 
5.600000e-01  4.841923160591764e-01 
5.650000e-01  4.856040189330156e-01 
5.700000e-01  4.872914884593855e-01 
5.750000e-01  4.891148627646973e-01 
5.800000e-01  4.909533185296551e-01 
5.850000e-01  4.927190522702132e-01 
5.900000e-01  4.943651751915621e-01 
5.950000e-01  4.958865841882027e-01 
6.000000e-01  4.973136150724621e-01 
6.050000e-01  4.986991914538810e-01 
6.100000e-01  5.001012537841799e-01 
6.150000e-01  5.015632852544910e-01 
6.200000e-01  5.030964209701696e-01 
6.250000e-01  5.046666578495554e-01 
6.300000e-01  5.061899827817802e-01 
6.350000e-01  5.075369303772723e-01 
6.400000e-01  5.085464474218888e-01 
6.450000e-01  5.090473051780137e-01 
6.500000e-01  5.088839433016695e-01 
6.550000e-01  5.079427405540816e-01 
6.600000e-01  5.061744040609188e-01 
6.650000e-01  5.036085341986503e-01 
6.700000e-01  5.003575033560320e-01 
6.750000e-01  4.966085125556464e-01 
6.800000e-01  4.926047741997563e-01 
6.850000e-01  4.886187227774745e-01 
6.900000e-01  4.849214602970222e-01 
6.950000e-01  4.817529955238412e-01 
7.000000e-01  4.792972794382802e-01 
7.050000e-01  4.776648928637600e-01 
7.100000e-01  4.768848960256247e-01 
7.150000e-01  4.769060910796748e-01 
7.200000e-01  4.776069162269651e-01 
7.250000e-01  4.788124219597130e-01 
7.300000e-01  4.803162636055733e-01 
7.350000e-01  4.819053326917977e-01 
7.400000e-01  4.833844793619151e-01 
7.450000e-01  4.845987212328383e-01 
7.500000e-01  4.854504522190987e-01 
7.550000e-01  4.859095933160472e-01 
7.600000e-01  4.860154633787716e-01 
7.650000e-01  4.858703158819926e-01 
7.700000e-01  4.856257075261001e-01 
7.750000e-01  4.854637812060464e-01 
7.800000e-01  4.855759310283883e-01 
7.850000e-01  4.861411839425602e-01 
7.900000e-01  4.873061853787884e-01 
7.950000e-01  4.891681660175894e-01 
8.000000e-01  4.917618754270930e-01 
8.050000e-01  4.950512675289199e-01 
8.100000e-01  4.989266727798681e-01 
8.150000e-01  5.032081556441398e-01 
8.200000e-01  5.076555533436525e-01 
8.250000e-01  5.119852003364584e-01 
8.300000e-01  5.158925840741014e-01 
8.350000e-01  5.190793137351277e-01 
8.400000e-01  5.212820222040385e-01 
8.450000e-01  5.223003114211797e-01 
8.500000e-01  5.220206558035010e-01 
8.550000e-01  5.204333226273814e-01 
8.600000e-01  5.176398810043935e-01 
8.650000e-01  5.138497642782560e-01 
8.700000e-01  5.093655606056274e-01 
8.750000e-01  5.045580712871145e-01 
8.800000e-01  4.998334792743420e-01 
8.850000e-01  4.955960051726414e-01 
8.900000e-01  4.922100363043883e-01 
8.950000e-01  4.899657951712185e-01 
9.000000e-01  4.890521454254570e-01 
9.050000e-01  4.895392096870094e-01 
9.100000e-01  4.913723049641922e-01 
9.150000e-01  4.943775428671655e-01 
9.200000e-01  4.982784685029263e-01 
9.250000e-01  5.027223330059897e-01 
9.300000e-01  5.073138812434400e-01 
9.350000e-01  5.116537600973626e-01 
9.400000e-01  5.153778418034630e-01 
9.450000e-01  5.181931524974187e-01 
9.500000e-01  5.199060576190646e-01 
9.550000e-01  5.204391540444144e-01 
9.600000e-01  5.198349349562310e-01 
9.650000e-01  5.182463518030167e-01 
9.700000e-01  5.159163034135573e-01 
9.750000e-01  5.131493124355658e-01 
9.800000e-01  5.102790193965141e-01 
9.850000e-01  5.076348408809422e-01 
9.900000e-01  5.055105962776654e-01 
9.950000e-01  5.041374080939394e-01 
1.000000e+00  5.036627860980463e-01 
