TITLE ="t=0.111176" 
VARIABLES = "x"                 "phi" 
ZONE I=201, ZONETYPE=Ordered, DATAPACKING=POINT
0.000000e+00  5.577823095864155e-01 
5.000000e-03  5.561894194493248e-01 
1.000000e-02  5.515291647177020e-01 
1.500000e-02  5.441477339993007e-01 
2.000000e-02  5.345925752546445e-01 
2.500000e-02  5.235703897024159e-01 
3.000000e-02  5.118928111826977e-01 
3.500000e-02  5.004139771698527e-01 
4.000000e-02  4.899649118359851e-01 
4.500000e-02  4.812899299869595e-01 
5.000000e-02  4.749900796958155e-01 
5.500000e-02  4.714779972263634e-01 
6.000000e-02  4.709475461988791e-01 
6.500000e-02  4.733603842839448e-01 
7.000000e-02  4.784502697620711e-01 
7.500000e-02  4.857445827513623e-01 
8.000000e-02  4.946012621554783e-01 
8.500000e-02  5.042582162914280e-01 
9.000000e-02  5.138913340249949e-01 
9.500000e-02  5.226765960979378e-01 
1.000000e-01  5.298515404002552e-01 
1.050000e-01  5.347715014160090e-01 
1.100000e-01  5.369565911139846e-01 
1.150000e-01  5.361262295301998e-01 
1.200000e-01  5.322190564562213e-01 
1.250000e-01  5.253971589749641e-01 
1.300000e-01  5.160346610346007e-01 
1.350000e-01  5.046917940645085e-01 
1.400000e-01  4.920765575037938e-01 
1.450000e-01  4.789969221631681e-01 
1.500000e-01  4.663071452082388e-01 
1.550000e-01  4.548520737610603e-01 
1.600000e-01  4.454132710697440e-01 
1.650000e-01  4.386604218109992e-01 
1.700000e-01  4.351108410864338e-01 
1.750000e-01  4.350991445234937e-01 
1.800000e-01  4.387583541764218e-01 
1.850000e-01  4.460129973992092e-01 
1.900000e-01  4.565841262629887e-01 
1.950000e-01  4.700056191743783e-01 
2.000000e-01  4.856505879654915e-01 
2.050000e-01  5.027661926659525e-01 
2.100000e-01  5.205146964201162e-01 
2.150000e-01  5.380182427913400e-01 
2.200000e-01  5.544046798635744e-01 
2.250000e-01  5.688518351627438e-01 
2.300000e-01  5.806279581114103e-01 
2.350000e-01  5.891265341091311e-01 
2.400000e-01  5.938942365273669e-01 
2.450000e-01  5.946513053029657e-01 
2.500000e-01  5.913040293661050e-01 
2.550000e-01  5.839492252767399e-01 
2.600000e-01  5.728706789531601e-01 
2.650000e-01  5.585275454640583e-01 
2.700000e-01  5.415347993711982e-01 
2.750000e-01  5.226360813740255e-01 
2.800000e-01  5.026697152825994e-01 
2.850000e-01  4.825292168279972e-01 
2.900000e-01  4.631201722066003e-01 
2.950000e-01  4.453158018041193e-01 
3.000000e-01  4.299137380007232e-01 
3.050000e-01  4.175964848170306e-01 
3.100000e-01  4.088977125028724e-01 
3.150000e-01  4.041760599034317e-01 
3.200000e-01  4.035975969104771e-01 
3.250000e-01  4.071276522208941e-01 
3.300000e-01  4.145323888729255e-01 
3.350000e-01  4.253902737313681e-01 
3.400000e-01  4.391133306803223e-01 
3.450000e-01  4.549776765842524e-01 
3.500000e-01  4.721622611007661e-01 
3.550000e-01  4.897940116306782e-01 
3.600000e-01  5.069968548641073e-01 
3.650000e-01  5.229415143573398e-01 
3.700000e-01  5.368927118970184e-01 
3.750000e-01  5.482504994954555e-01 
3.800000e-01  5.565828993704154e-01 
3.850000e-01  5.616477365118708e-01 
3.900000e-01  5.634023815760208e-01 
3.950000e-01  5.620009618674622e-01 
4.000000e-01  5.577793740196174e-01 
4.050000e-01  5.512291279454383e-01 
4.100000e-01  5.429616839975138e-01 
4.150000e-01  5.336655246495177e-01 
4.200000e-01  5.240587058411986e-01 
4.250000e-01  5.148400044000070e-01 
4.300000e-01  5.066419476755172e-01 
4.350000e-01  4.999889292123958e-01 
4.400000e-01  4.952632693275328e-01 
4.450000e-01  4.926815045197038e-01 
4.500000e-01  4.922824478718625e-01 
4.550000e-01  4.939277276186565e-01 
4.600000e-01  4.973146504183334e-01 
4.650000e-01  5.020004048165199e-01 
4.700000e-01  5.074358651550401e-01 
4.750000e-01  5.130066204461041e-01 
4.800000e-01  5.180783796542973e-01 
4.850000e-01  5.220436316031470e-01 
4.900000e-01  5.243663859224189e-01 
4.950000e-01  5.246219897511367e-01 
5.000000e-01  5.225293794602743e-01 
5.050000e-01  5.179736494668600e-01 
5.100000e-01  5.110174606933170e-01 
5.150000e-01  5.019005338252831e-01 
5.200000e-01  4.910272457109016e-01 
5.250000e-01  4.789431351777435e-01 
5.300000e-01  4.663018782276538e-01 
5.350000e-01  4.538249485395546e-01 
5.400000e-01  4.422566693180818e-01 
5.450000e-01  4.323176317852280e-01 
5.500000e-01  4.246594802975150e-01 
5.550000e-01  4.198238616068011e-01 
5.600000e-01  4.182079607823145e-01 
5.650000e-01  4.200385721428230e-01 
5.700000e-01  4.253561450703656e-01 
5.750000e-01  4.340097336910280e-01 
5.800000e-01  4.456632569899119e-01 
5.850000e-01  4.598129073342606e-01 
5.900000e-01  4.758149030679892e-01 
5.950000e-01  4.929220759430442e-01 
6.000000e-01  5.103270790146700e-01 
6.050000e-01  5.272093962302348e-01 
6.100000e-01  5.427829406392372e-01 
6.150000e-01  5.563409274556593e-01 
6.200000e-01  5.672949327997834e-01 
6.250000e-01  5.752055684021905e-01 
6.300000e-01  5.798029325144340e-01 
6.350000e-01  5.809958244143776e-01 
6.400000e-01  5.788695262246513e-01 
6.450000e-01  5.736726892136511e-01 
6.500000e-01  5.657944888999449e-01 
6.550000e-01  5.557337476009397e-01 
6.600000e-01  5.440621858962883e-01 
6.650000e-01  5.313843562691147e-01 
6.700000e-01  5.182971000618098e-01 
6.750000e-01  5.053514952262144e-01 
6.800000e-01  4.930201674263950e-01 
6.850000e-01  4.816724835585819e-01 
6.900000e-01  4.715595363296948e-01 
6.950000e-01  4.628100057397027e-01 
7.000000e-01  4.554370277834490e-01 
7.050000e-01  4.493552117984232e-01 
7.100000e-01  4.444060274685272e-01 
7.150000e-01  4.403890204732593e-01 
7.200000e-01  4.370957812882205e-01 
7.250000e-01  4.343433296058112e-01 
7.300000e-01  4.320036079976483e-01 
7.350000e-01  4.300261006884958e-01 
7.400000e-01  4.284511829566585e-01 
7.450000e-01  4.274126194870300e-01 
7.500000e-01  4.271286029957552e-01 
7.550000e-01  4.278817794444238e-01 
7.600000e-01  4.299897557132580e-01 
7.650000e-01  4.337685407373214e-01 
7.700000e-01  4.394921492684274e-01 
7.750000e-01  4.473521283291603e-01 
7.800000e-01  4.574209946134765e-01 
7.850000e-01  4.696234563527414e-01 
7.900000e-01  4.837188127032274e-01 
7.950000e-01  4.992970799321835e-01 
8.000000e-01  5.157902276932563e-01 
8.050000e-01  5.324985131947715e-01 
8.100000e-01  5.486304224444409e-01 
8.150000e-01  5.633533491925125e-01 
8.200000e-01  5.758510479110395e-01 
8.250000e-01  5.853832271681494e-01 
8.300000e-01  5.913424614624304e-01 
8.350000e-01  5.933038536207764e-01 
8.400000e-01  5.910634627623605e-01 
8.450000e-01  5.846622941416837e-01 
8.500000e-01  5.743935462674482e-01 
8.550000e-01  5.607918310253113e-01 
8.600000e-01  5.446042821492996e-01 
8.650000e-01  5.267448776403777e-01 
8.700000e-01  5.082348494647919e-01 
8.750000e-01  4.901335426806347e-01 
8.800000e-01  4.734652498209519e-01 
8.850000e-01  4.591481421547388e-01 
8.900000e-01  4.479313136414668e-01 
8.950000e-01  4.403451643239908e-01 
9.000000e-01  4.366690351674147e-01 
9.050000e-01  4.369184010576380e-01 
9.100000e-01  4.408522604866189e-01 
9.150000e-01  4.479997817503010e-01 
9.200000e-01  4.577038387954043e-01 
9.250000e-01  4.691778109644062e-01 
9.300000e-01  4.815709634690194e-01 
9.350000e-01  4.940369572177309e-01 
9.400000e-01  5.057996832548066e-01 
9.450000e-01  5.162107888869456e-01 
9.500000e-01  5.247940001537421e-01 
9.550000e-01  5.312725923847692e-01 
9.600000e-01  5.355779736352706e-01 
9.650000e-01  5.378391311421384e-01 
9.700000e-01  5.383544504584586e-01 
9.750000e-01  5.375489826538909e-01 
9.800000e-01  5.359214825903112e-01 
9.850000e-01  5.339863858597078e-01 
9.900000e-01  5.322162784858526e-01 
9.950000e-01  5.309903133288121e-01 
1.000000e+00  5.305534430215308e-01 
