TITLE ="t=683.288398" 
VARIABLES = "x"                 "phi" 
ZONE I=201, ZONETYPE=Ordered, DATAPACKING=POINT
0.000000e+00  9.961909235474677e-01 
5.000000e-03  9.898453961886453e-01 
1.000000e-02  9.470770423479208e-01 
1.500000e-02  8.607374891298138e-01 
2.000000e-02  7.383024987595720e-01 
2.500000e-02  5.918168219606820e-01 
3.000000e-02  4.360249659739552e-01 
3.500000e-02  2.866974846612716e-01 
4.000000e-02  1.588927310552607e-01 
4.500000e-02  6.526597942103887e-02 
5.000000e-02  1.433446641932323e-02 
5.500000e-02  3.606144005104555e-03 
6.000000e-02  1.400218396887370e-02 
6.500000e-02  6.438512683855556e-02 
7.000000e-02  1.575307844915722e-01 
7.500000e-02  2.849878151460642e-01 
8.000000e-02  4.341403755820017e-01 
8.500000e-02  5.899494644545340e-01 
9.000000e-02  7.366426815569250e-01 
9.500000e-02  8.594526271326302e-01 
1.000000e-01  9.462917782918693e-01 
1.050000e-01  9.896094470196557e-01 
1.100000e-01  9.962293927084163e-01 
1.150000e-01  9.892271241119747e-01 
1.200000e-01  9.450197023902402e-01 
1.250000e-01  8.573741773515501e-01 
1.300000e-01  7.339607098908593e-01 
1.350000e-01  5.869357715271258e-01 
1.400000e-01  4.311034928886924e-01 
1.450000e-01  2.822388943726746e-01 
1.500000e-01  1.553492967677743e-01 
1.550000e-01  6.298643821972136e-02 
1.600000e-01  1.349459544905655e-02 
1.650000e-01  4.354482046067264e-03 
1.700000e-01  4.860966559974886e-03 
1.750000e-01  4.518385675598409e-03 
1.800000e-01  6.778851625310562e-03 
1.850000e-01  3.891904832181023e-02 
1.900000e-01  1.152414103832701e-01 
1.950000e-01  2.299276052152494e-01 
2.000000e-01  3.718263998849717e-01 
2.050000e-01  5.267005464186730e-01 
2.100000e-01  6.788793314815390e-01 
2.150000e-01  8.129887349912687e-01 
2.200000e-01  9.156609109205320e-01 
2.250000e-01  9.771912354125724e-01 
2.300000e-01  9.952079689081327e-01 
2.350000e-01  9.952477121123032e-01 
2.400000e-01  9.952397501022116e-01 
2.450000e-01  9.952528929729382e-01 
2.500000e-01  9.951742961129987e-01 
2.550000e-01  9.956455081224760e-01 
2.600000e-01  9.873016873984671e-01 
2.650000e-01  9.391668533387441e-01 
2.700000e-01  8.480003537492358e-01 
2.750000e-01  7.219778553576187e-01 
2.800000e-01  5.735523519451551e-01 
2.850000e-01  4.176824481954185e-01 
2.900000e-01  2.701470742574796e-01 
2.950000e-01  1.458064874769164e-01 
3.000000e-01  5.692230191293599e-02 
3.050000e-01  1.134232925194935e-02 
3.100000e-01  4.354951409068778e-03 
3.150000e-01  4.825101789818064e-03 
3.200000e-01  4.748644963996385e-03 
3.250000e-01  4.748658341883665e-03 
3.300000e-01  4.825258653458318e-03 
3.350000e-01  4.354642857135183e-03 
3.400000e-01  1.272526219945679e-02 
3.450000e-01  6.090807554809874e-02 
3.500000e-01  1.521173285554811e-01 
3.550000e-01  2.781712268983836e-01 
3.600000e-01  4.266131660093425e-01 
3.650000e-01  5.824826967223606e-01 
3.700000e-01  7.300009054789286e-01 
3.750000e-01  8.543094069468529e-01 
3.800000e-01  9.431502108759390e-01 
3.850000e-01  9.886817821728932e-01 
3.900000e-01  9.956449758136584e-01 
3.950000e-01  9.951747744937910e-01 
4.000000e-01  9.952531454122215e-01 
4.050000e-01  9.952410591660220e-01 
4.100000e-01  9.952429770309871e-01 
4.150000e-01  9.952427033676881e-01 
4.200000e-01  9.952427789333376e-01 
4.250000e-01  9.952427552161744e-01 
4.300000e-01  9.952430333564554e-01 
4.350000e-01  9.952414308560723e-01 
4.400000e-01  9.952518452897170e-01 
4.450000e-01  9.951847438233924e-01 
4.500000e-01  9.955911953648359e-01 
4.550000e-01  9.911199627078200e-01 
4.600000e-01  9.514048820145529e-01 
4.650000e-01  8.678816313776172e-01 
4.700000e-01  7.475858166034424e-01 
4.750000e-01  6.023168942938772e-01 
4.800000e-01  4.466848625912261e-01 
4.850000e-01  2.964429138224510e-01 
4.900000e-01  1.667506169716654e-01 
4.950000e-01  7.047732572759742e-02 
5.000000e-01  1.650043343292530e-02 
5.050000e-01  4.437975105270143e-03 
5.100000e-01  4.810954391274811e-03 
5.150000e-01  4.749633274188250e-03 
5.200000e-01  4.759107307999905e-03 
5.250000e-01  4.757602249911569e-03 
5.300000e-01  4.757813437299672e-03 
5.350000e-01  4.757757911608564e-03 
5.400000e-01  4.757735927669119e-03 
5.450000e-01  4.757760649930553e-03 
5.500000e-01  4.757445489599918e-03 
5.550000e-01  4.759313436395295e-03 
5.600000e-01  4.747221320973285e-03 
5.650000e-01  4.825310658882149e-03 
5.700000e-01  4.356367256149086e-03 
5.750000e-01  1.295535597949955e-02 
5.800000e-01  6.153884349253014e-02 
5.850000e-01  1.531030375829056e-01 
5.900000e-01  2.794160667921770e-01 
5.950000e-01  4.279918971289358e-01 
6.000000e-01  5.838552946331754e-01 
6.050000e-01  7.312280215790655e-01 
6.100000e-01  8.552677735168732e-01 
6.150000e-01  9.437471956259561e-01 
6.200000e-01  9.888776234299919e-01 
6.250000e-01  9.956432834522861e-01 
6.300000e-01  9.951750714528915e-01 
6.350000e-01  9.952530173020293e-01 
6.400000e-01  9.952412569522351e-01 
6.450000e-01  9.952412567683891e-01 
6.500000e-01  9.952530181449083e-01 
6.550000e-01  9.951750654328350e-01 
6.600000e-01  9.956433158284211e-01 
6.650000e-01  9.888742773372767e-01 
6.700000e-01  9.437369173091086e-01 
6.750000e-01  8.552512397778187e-01 
6.800000e-01  7.312068264632563e-01 
6.850000e-01  5.838315640087526e-01 
6.900000e-01  4.279680377206853e-01 
6.950000e-01  2.793945003696749e-01 
7.000000e-01  1.530859340569498e-01 
7.050000e-01  6.152786835270881e-02 
7.100000e-01  1.295131674549343e-02 
7.150000e-01  4.356326970843476e-03 
7.200000e-01  4.825305693558860e-03 
7.250000e-01  4.747201852131474e-03 
7.300000e-01  4.759293871665666e-03 
7.350000e-01  4.757387916946420e-03 
7.400000e-01  4.757899082378761e-03 
7.450000e-01  4.756573663164243e-03 
7.500000e-01  4.764887179792737e-03 
7.550000e-01  4.712182348653805e-03 
7.600000e-01  5.066041953111930e-03 
7.650000e-01  2.607349053873702e-02 
7.700000e-01  9.097679078345389e-02 
7.750000e-01  1.964442504422854e-01 
7.800000e-01  3.324244714598252e-01 
7.850000e-01  4.853395827690708e-01 
7.900000e-01  6.397341415422513e-01 
7.950000e-01  7.799898683670239e-01 
8.000000e-01  8.920518028960216e-01 
8.050000e-01  9.650763022337426e-01 
8.100000e-01  9.938736873577027e-01 
8.150000e-01  9.954127100699205e-01 
8.200000e-01  9.952152417234872e-01 
8.250000e-01  9.952471708039801e-01 
8.300000e-01  9.952403006700428e-01 
8.350000e-01  9.952532148289838e-01 
8.400000e-01  9.951742257859568e-01 
8.450000e-01  9.956471675074126e-01 
8.500000e-01  9.876390469152813e-01 
8.550000e-01  9.401080909458215e-01 
8.600000e-01  8.494780695381421e-01 
8.650000e-01  7.238485189364356e-01 
8.700000e-01  5.756277960912549e-01 
8.750000e-01  4.197519001051500e-01 
8.800000e-01  2.720004290843195e-01 
8.850000e-01  1.472575282427508e-01 
8.900000e-01  5.783064527475421e-02 
8.950000e-01  1.164645432152117e-02 
9.000000e-01  4.353189539412021e-03 
9.050000e-01  4.825615995640486e-03 
9.100000e-01  4.747328871697394e-03 
9.150000e-01  4.756614361052356e-03 
9.200000e-01  4.773288920011194e-03 
9.250000e-01  4.656571038183894e-03 
9.300000e-01  5.492459984536690e-03 
9.350000e-01  3.013485354579953e-02 
9.400000e-01  9.892100313043641e-02 
9.450000e-01  2.075644921711118e-01 
9.500000e-01  3.456283917660246e-01 
9.550000e-01  4.993018073408433e-01 
9.600000e-01  6.530456659264948e-01 
9.650000e-01  7.913131419605048e-01 
9.700000e-01  9.002706285428782e-01 
9.750000e-01  9.694435144699636e-01 
9.800000e-01  9.944576088054807e-01 
9.850000e-01  9.953494629648969e-01 
9.900000e-01  9.952254812374415e-01 
9.950000e-01  9.952452470423303e-01 
1.000000e+00  9.952417003816660e-01 
