TITLE ="t=0.593812" 
VARIABLES = "x"                 "phi" 
ZONE I=201, ZONETYPE=Ordered, DATAPACKING=POINT
0.000000e+00  9.959732565753753e-01 
5.000000e-03  9.916614119144134e-01 
1.000000e-02  9.539507832724801e-01 
1.500000e-02  8.723402716230380e-01 
2.000000e-02  7.535683974528613e-01 
2.500000e-02  6.092584133865461e-01 
3.000000e-02  4.539125501335934e-01 
3.500000e-02  3.032508019506065e-01 
4.000000e-02  1.724773601088289e-01 
4.500000e-02  7.458278667562598e-02 
5.000000e-02  1.866907949594247e-02 
5.500000e-02  5.962681860064614e-03 
6.000000e-02  3.125456389421171e-02 
6.500000e-02  1.007573501519456e-01 
7.000000e-02  2.099424984882991e-01 
7.500000e-02  3.483115853228377e-01 
8.000000e-02  5.020255469894613e-01 
8.500000e-02  6.555470726702018e-01 
9.000000e-02  7.933602270352184e-01 
9.500000e-02  9.016887527082900e-01 
1.000000e-01  9.701400655169610e-01 
1.050000e-01  9.944958374173821e-01 
1.100000e-01  9.954853598559034e-01 
1.150000e-01  9.790206449367973e-01 
1.200000e-01  9.194698902675447e-01 
1.250000e-01  8.184928232074088e-01 
1.300000e-01  6.855678711378996e-01 
1.350000e-01  5.339183216209510e-01 
1.400000e-01  3.788488490959868e-01 
1.450000e-01  2.360408381420116e-01 
1.500000e-01  1.198216475644248e-01 
1.550000e-01  4.151031626487788e-02 
1.600000e-01  7.272908699287674e-03 
1.650000e-01  4.491825510496956e-03 
1.700000e-01  4.823228027727333e-03 
1.750000e-01  4.614872068960674e-03 
1.800000e-01  5.794850724620253e-03 
1.850000e-01  3.255825626844577e-02 
1.900000e-01  1.035422773060633e-01 
1.950000e-01  2.139761970374905e-01 
2.000000e-01  3.532065006016327e-01 
2.050000e-01  5.072892697436974e-01 
2.100000e-01  6.606372391824906e-01 
2.150000e-01  7.977438214156567e-01 
2.200000e-01  9.049013969651284e-01 
2.250000e-01  9.718483747156010e-01 
2.300000e-01  9.947306676149815e-01 
2.350000e-01  9.953176173491650e-01 
2.400000e-01  9.952325798213759e-01 
2.450000e-01  9.952516721605441e-01 
2.500000e-01  9.952154659584950e-01 
2.550000e-01  9.954284682414710e-01 
2.600000e-01  9.804900586612367e-01 
2.650000e-01  9.226344137760784e-01 
2.700000e-01  8.230086811267769e-01 
2.750000e-01  6.909410694333595e-01 
2.800000e-01  5.395805632709189e-01 
2.850000e-01  3.842211770669924e-01 
2.900000e-01  2.405967617484261e-01 
2.950000e-01  1.231453972171618e-01 
3.000000e-01  4.334798480575501e-02 
3.050000e-01  7.635126229744080e-03 
3.100000e-01  4.471024209221154e-03 
3.150000e-01  4.810913553279974e-03 
3.200000e-01  4.760891941547221e-03 
3.250000e-01  4.776181326820862e-03 
3.300000e-01  4.769735000980856e-03 
3.350000e-01  4.843483716895319e-03 
3.400000e-01  2.284658178321235e-02 
3.450000e-01  8.387427319667681e-02 
3.500000e-01  1.856157622649152e-01 
3.550000e-01  3.185181653965509e-01 
3.600000e-01  4.694097236702702e-01 
3.650000e-01  6.231419820845453e-01 
3.700000e-01  7.642905356302276e-01 
3.750000e-01  8.788950566964085e-01 
3.800000e-01  9.561827152621067e-01 
3.850000e-01  9.909704032287247e-01 
3.900000e-01  9.945732112246444e-01 
3.950000e-01  9.917167388643154e-01 
4.000000e-01  9.808117538935354e-01 
4.050000e-01  9.572247617853180e-01 
4.100000e-01  9.223597436792860e-01 
4.150000e-01  8.795352357617089e-01 
4.200000e-01  8.328552809055882e-01 
4.250000e-01  7.866998998856674e-01 
4.300000e-01  7.452228528612208e-01 
4.350000e-01  7.118476309193045e-01 
4.400000e-01  6.888145197879453e-01 
4.450000e-01  6.768450685001977e-01 
4.500000e-01  6.749996693526958e-01 
4.550000e-01  6.807846057559995e-01 
4.600000e-01  6.904934698945152e-01 
4.650000e-01  6.996877043295892e-01 
4.700000e-01  7.037036754922265e-01 
4.750000e-01  6.981145291334405e-01 
4.800000e-01  6.791264074427669e-01 
4.850000e-01  6.439399853162773e-01 
4.900000e-01  5.911638691702276e-01 
4.950000e-01  5.213485612381510e-01 
5.000000e-01  4.374756246414718e-01 
5.050000e-01  3.449856902293272e-01 
5.100000e-01  2.511592486202961e-01 
5.150000e-01  1.640890786977239e-01 
5.200000e-01  9.155057046720841e-02 
5.250000e-01  3.991036579862771e-02 
5.300000e-01  1.276844454700090e-02 
5.350000e-01  6.373142857421264e-03 
5.400000e-01  6.136044201654360e-03 
5.450000e-01  5.938565082591921e-03 
5.500000e-01  5.688897520609307e-03 
5.550000e-01  5.466027432950245e-03 
5.600000e-01  5.256337647892590e-03 
5.650000e-01  5.139401315707503e-03 
5.700000e-01  4.545339972321081e-03 
5.750000e-01  1.007969188382136e-02 
5.800000e-01  5.186017610740719e-02 
5.850000e-01  1.369276943297618e-01 
5.900000e-01  2.581702246475683e-01 
5.950000e-01  4.037670936072312e-01 
6.000000e-01  5.591272160205858e-01 
6.050000e-01  7.085684929730809e-01 
6.100000e-01  8.370541148102068e-01 
6.150000e-01  9.318820607014181e-01 
6.200000e-01  9.843939438024228e-01 
6.250000e-01  9.955730546985246e-01 
6.300000e-01  9.951691328906039e-01 
6.350000e-01  9.952327303163502e-01 
6.400000e-01  9.952214347461257e-01 
6.450000e-01  9.952207245774564e-01 
6.500000e-01  9.952323648728748e-01 
6.550000e-01  9.951597475046524e-01 
6.600000e-01  9.956114326898340e-01 
6.650000e-01  9.897275772914165e-01 
6.700000e-01  9.466987104920233e-01 
6.750000e-01  8.603106091299368e-01 
6.800000e-01  7.380017595331033e-01 
6.850000e-01  5.917567478048625e-01 
6.900000e-01  4.362493713742900e-01 
6.950000e-01  2.871752708040087e-01 
7.000000e-01  1.595201358471967e-01 
7.050000e-01  6.587515341183317e-02 
7.100000e-01  1.471491196745985e-02 
7.150000e-01  4.408698384078583e-03 
7.200000e-01  4.841766147390156e-03 
7.250000e-01  4.775205681257448e-03 
7.300000e-01  4.788308581379975e-03 
7.350000e-01  4.787165430064333e-03 
7.400000e-01  4.786809237300416e-03 
7.450000e-01  4.780706032982975e-03 
7.500000e-01  4.797678385545166e-03 
7.550000e-01  4.657810176254472e-03 
7.600000e-01  5.633030236256847e-03 
7.650000e-01  3.108993309346739e-02 
7.700000e-01  1.005882607955495e-01 
7.750000e-01  2.097012648927956e-01 
7.800000e-01  3.479667730422276e-01 
7.850000e-01  5.015802050083960e-01 
7.900000e-01  6.550364014158664e-01 
7.950000e-01  7.928470387302270e-01 
8.000000e-01  9.012566682328057e-01 
8.050000e-01  9.698837853373767e-01 
8.100000e-01  9.944899690177172e-01 
8.150000e-01  9.953345947507549e-01 
8.200000e-01  9.952157321632907e-01 
8.250000e-01  9.952342634525618e-01 
8.300000e-01  9.952304613553712e-01 
8.350000e-01  9.952395658785772e-01 
8.400000e-01  9.951906721577475e-01 
8.450000e-01  9.955016590618210e-01 
8.500000e-01  9.822316484676499e-01 
8.550000e-01  9.266721320074753e-01 
8.600000e-01  8.291058513765911e-01 
8.650000e-01  6.985647180084089e-01 
8.700000e-01  5.479973572134257e-01 
8.750000e-01  3.925833773678113e-01 
8.800000e-01  2.480363414736140e-01 
8.850000e-01  1.288702957313415e-01 
8.900000e-01  4.673793668116973e-02 
8.950000e-01  8.438086752513540e-03 
9.000000e-01  4.435762077098298e-03 
9.050000e-01  4.820930396756316e-03 
9.100000e-01  4.760272511172931e-03 
9.150000e-01  4.766465464859717e-03 
9.200000e-01  4.793265474429395e-03 
9.250000e-01  4.615776930422222e-03 
9.300000e-01  5.969291993421130e-03 
9.350000e-01  3.364681829190568e-02 
9.400000e-01  1.054023150597218e-01 
9.450000e-01  2.163214544924726e-01 
9.500000e-01  3.557287645989702e-01 
9.550000e-01  5.096964354063788e-01 
9.600000e-01  6.626854861816917e-01 
9.650000e-01  7.992651897500178e-01 
9.700000e-01  9.058250335225564e-01 
9.750000e-01  9.722163261846788e-01 
9.800000e-01  9.947409760800455e-01 
9.850000e-01  9.952963274647321e-01 
9.900000e-01  9.952120079873773e-01 
9.950000e-01  9.952225591463388e-01 
1.000000e+00  9.952195419990481e-01 
