TITLE ="t=43.288398" 
VARIABLES = "x"                 "phi" 
ZONE I=201, ZONETYPE=Ordered, DATAPACKING=POINT
0.000000e+00  9.958916996097962e-01 
5.000000e-03  9.922282037023527e-01 
1.000000e-02  9.564115344505248e-01 
1.500000e-02  8.765674141171579e-01 
2.000000e-02  7.591427363723864e-01 
2.500000e-02  6.156077068752934e-01 
3.000000e-02  4.603813542150235e-01 
3.500000e-02  3.091733272752288e-01 
4.000000e-02  1.772510295253685e-01 
4.500000e-02  7.773754389975024e-02 
5.000000e-02  1.994402176370174e-02 
5.500000e-02  5.452477274240144e-03 
6.000000e-02  2.809319114780484e-02 
6.500000e-02  9.481815988310173e-02 
7.000000e-02  2.017716275880113e-01 
7.500000e-02  3.387186881978977e-01 
8.000000e-02  4.919726122696273e-01 
8.500000e-02  6.460402135034554e-01 
9.000000e-02  7.853388333479860e-01 
9.500000e-02  8.959196932946004e-01 
1.000000e-01  9.671137624632018e-01 
1.050000e-01  9.940899664364808e-01 
1.100000e-01  9.956637850194295e-01 
1.150000e-01  9.807875982830636e-01 
1.200000e-01  9.232252776477827e-01 
1.250000e-01  8.238849509005688e-01 
1.300000e-01  6.920452032482882e-01 
1.350000e-01  5.408178985375736e-01 
1.400000e-01  3.854716061361723e-01 
1.450000e-01  2.417284330619074e-01 
1.500000e-01  1.240297109659966e-01 
1.550000e-01  4.387599028954692e-02 
1.600000e-01  7.754534735265084e-03 
1.650000e-01  4.459288427972549e-03 
1.700000e-01  4.823857053113120e-03 
1.750000e-01  4.634587649691877e-03 
1.800000e-01  5.610509592370487e-03 
1.850000e-01  3.110334723545633e-02 
1.900000e-01  1.007727198622641e-01 
1.950000e-01  2.101327783045930e-01 
2.000000e-01  3.486605880413728e-01 
2.050000e-01  5.024934611344073e-01 
2.100000e-01  6.560747560856958e-01 
2.150000e-01  7.938755356055952e-01 
2.200000e-01  9.021142850791676e-01 
2.250000e-01  9.704027978236486e-01 
2.300000e-01  9.945694856946773e-01 
2.350000e-01  9.953359136256390e-01 
2.400000e-01  9.952265410828408e-01 
2.450000e-01  9.952504184548335e-01 
2.500000e-01  9.952038913404245e-01 
2.550000e-01  9.954744445198341e-01 
2.600000e-01  9.814615540875342e-01 
2.650000e-01  9.248410985700700e-01 
2.700000e-01  8.263042466622642e-01 
2.750000e-01  6.950269822860515e-01 
2.800000e-01  5.440579167157293e-01 
2.850000e-01  3.886371388029139e-01 
2.900000e-01  2.444949100332723e-01 
2.950000e-01  1.261167451136158e-01 
3.000000e-01  4.508165888719665e-02 
3.050000e-01  8.023913182007245e-03 
3.100000e-01  4.447875737328261e-03 
3.150000e-01  4.808224128361154e-03 
3.200000e-01  4.750964123337648e-03 
3.250000e-01  4.748768293191286e-03 
3.300000e-01  4.821633555346406e-03 
3.350000e-01  4.375181915736989e-03 
3.400000e-01  1.427740312669467e-02 
3.450000e-01  6.502595529368685e-02 
3.500000e-01  1.584961382010752e-01 
3.550000e-01  2.861904745843625e-01 
3.600000e-01  4.354660183225643e-01 
3.650000e-01  5.912701251041838e-01 
3.700000e-01  7.378309449330799e-01 
3.750000e-01  8.603958099617421e-01 
3.800000e-01  9.469055924813362e-01 
3.850000e-01  9.898642992808113e-01 
3.900000e-01  9.956282924818537e-01 
3.950000e-01  9.951779831696924e-01 
4.000000e-01  9.952528256060812e-01 
4.050000e-01  9.952412687157508e-01 
4.100000e-01  9.952430937761096e-01 
4.150000e-01  9.952428249382602e-01 
4.200000e-01  9.952428881963795e-01 
4.250000e-01  9.952428670483396e-01 
4.300000e-01  9.952430673124463e-01 
4.350000e-01  9.952418998267142e-01 
4.400000e-01  9.952494727108256e-01 
4.450000e-01  9.952007848418034e-01 
4.500000e-01  9.955000901871887e-01 
4.550000e-01  9.928278837762763e-01 
4.600000e-01  9.589511495324710e-01 
4.650000e-01  8.809471232375123e-01 
4.700000e-01  7.649348768876002e-01 
4.750000e-01  6.222199636390404e-01 
4.800000e-01  4.671300691762594e-01 
4.850000e-01  3.153594711164597e-01 
4.900000e-01  1.822370298648459e-01 
4.950000e-01  8.101951917952703e-02 
5.000000e-01  2.122788804964462e-02 
5.050000e-01  4.680943712330245e-03 
5.100000e-01  4.770071726970974e-03 
5.150000e-01  4.755928812767039e-03 
5.200000e-01  4.758078064878682e-03 
5.250000e-01  4.757687129569065e-03 
5.300000e-01  4.757692802534680e-03 
5.350000e-01  4.757637771552934e-03 
5.400000e-01  4.757584336840246e-03 
5.450000e-01  4.757581142914482e-03 
5.500000e-01  4.757246858115836e-03 
5.550000e-01  4.759034288288229e-03 
5.600000e-01  4.747255721884993e-03 
5.650000e-01  4.823081486004166e-03 
5.700000e-01  4.366779527184117e-03 
5.750000e-01  1.039128540298645e-02 
5.800000e-01  5.393885748196255e-02 
5.850000e-01  1.409848935793851e-01 
5.900000e-01  2.639529716295985e-01 
5.950000e-01  4.107379665951112e-01 
6.000000e-01  5.665624820511050e-01 
6.050000e-01  7.156524814130851e-01 
6.100000e-01  8.429758657468279e-01 
6.150000e-01  9.359318191230228e-01 
6.200000e-01  9.860939525015142e-01 
6.250000e-01  9.956315949701582e-01 
6.300000e-01  9.951768976565971e-01 
6.350000e-01  9.952525049660627e-01 
6.400000e-01  9.952411555325531e-01 
6.450000e-01  9.952412095316585e-01 
6.500000e-01  9.952526571456446e-01 
6.550000e-01  9.951772120335485e-01 
6.600000e-01  9.956316404938136e-01 
6.650000e-01  9.896937261514450e-01 
6.700000e-01  9.463399668577098e-01 
6.750000e-01  8.594703236708050e-01 
6.800000e-01  7.366348040807298e-01 
6.850000e-01  5.899233975455361e-01 
6.900000e-01  4.341053698570118e-01 
6.950000e-01  2.849540498578310e-01 
7.000000e-01  1.575083109097175e-01 
7.050000e-01  6.438284456508722e-02 
7.100000e-01  1.402747988144159e-02 
7.150000e-01  4.370525303687931e-03 
7.200000e-01  4.822790092953291e-03 
7.250000e-01  4.747601301942040e-03 
7.300000e-01  4.759208645033871e-03 
7.350000e-01  4.757290164373875e-03 
7.400000e-01  4.758033830462710e-03 
7.450000e-01  4.754861379729214e-03 
7.500000e-01  4.774764635072115e-03 
7.550000e-01  4.649340859619201e-03 
7.600000e-01  5.552770675008942e-03 
7.650000e-01  3.064274652074571e-02 
7.700000e-01  9.989426436754516e-02 
7.750000e-01  2.089154591845384e-01 
7.800000e-01  3.472241030593864e-01 
7.850000e-01  5.009820124690273e-01 
7.900000e-01  6.546408305014074e-01 
7.950000e-01  7.926631082546564e-01 
8.000000e-01  9.012426201796406e-01 
8.050000e-01  9.699501666332773e-01 
8.100000e-01  9.945173945165552e-01 
8.150000e-01  9.953421905325294e-01 
8.200000e-01  9.952264701586743e-01 
8.250000e-01  9.952449747715054e-01 
8.300000e-01  9.952407028529783e-01 
8.350000e-01  9.952497983483164e-01 
8.400000e-01  9.951935299291883e-01 
8.450000e-01  9.955365420941681e-01 
8.500000e-01  9.828371179880906e-01 
8.550000e-01  9.279730869416357e-01 
8.600000e-01  8.309370602425734e-01 
8.650000e-01  7.007078469312475e-01 
8.700000e-01  5.502155744136847e-01 
8.750000e-01  3.946475344516781e-01 
8.800000e-01  2.497499833599429e-01 
8.850000e-01  1.300919034875360e-01 
8.900000e-01  4.739956024998370e-02 
8.950000e-01  8.576492510013902e-03 
9.000000e-01  4.421245869020309e-03 
9.050000e-01  4.812959100343398e-03 
9.100000e-01  4.749068408439468e-03 
9.150000e-01  4.754988469829106e-03 
9.200000e-01  4.779921439563739e-03 
9.250000e-01  4.614582711755315e-03 
9.300000e-01  5.860100617566918e-03 
9.350000e-01  3.304789355521461e-02 
9.400000e-01  1.044513788443914e-01 
9.450000e-01  2.152118780855564e-01 
9.500000e-01  3.546396717435016e-01 
9.550000e-01  5.087718521649985e-01 
9.600000e-01  6.620189045370876e-01 
9.650000e-01  7.988887374359330e-01 
9.700000e-01  9.057038706311564e-01 
9.750000e-01  9.722483075881651e-01 
9.800000e-01  9.947694735216426e-01 
9.850000e-01  9.953102460104380e-01 
9.900000e-01  9.952316118702274e-01 
9.950000e-01  9.952440703361949e-01 
1.000000e+00  9.952418328820379e-01 
