TITLE ="t=1.293514" 
VARIABLES = "x"                 "phi" 
ZONE I=201, ZONETYPE=Ordered, DATAPACKING=POINT
0.000000e+00  9.959715946378279e-01 
5.000000e-03  9.916822869183082e-01 
1.000000e-02  9.540234799421604e-01 
1.500000e-02  8.724486681791175e-01 
2.000000e-02  7.536922038260454e-01 
2.500000e-02  6.093781428883185e-01 
3.000000e-02  4.540118813589694e-01 
3.500000e-02  3.033185394711203e-01 
4.000000e-02  1.725089913411971e-01 
4.500000e-02  7.458161925968579e-02 
5.000000e-02  1.864698218947264e-02 
5.500000e-02  5.922781782031778e-03 
6.000000e-02  3.114601113882877e-02 
6.500000e-02  1.006027633718168e-01 
7.000000e-02  2.097772749779027e-01 
7.500000e-02  3.481657786620794e-01 
8.000000e-02  5.019202080184342e-01 
8.500000e-02  6.554920278731690e-01 
9.000000e-02  7.933529279136203e-01 
9.500000e-02  9.017142385074219e-01 
1.000000e-01  9.701721325195208e-01 
1.050000e-01  9.945028290352563e-01 
1.100000e-01  9.954952850752773e-01 
1.150000e-01  9.791166811257055e-01 
1.200000e-01  9.196240239794129e-01 
1.250000e-01  8.186549882741260e-01 
1.300000e-01  6.856974827791595e-01 
1.350000e-01  5.339894120002285e-01 
1.400000e-01  3.788525725897641e-01 
1.450000e-01  2.359862741945246e-01 
1.500000e-01  1.197348695315690e-01 
1.550000e-01  4.143151952792315e-02 
1.600000e-01  7.247263311872604e-03 
1.650000e-01  4.490829313777244e-03 
1.700000e-01  4.821710773233942e-03 
1.750000e-01  4.614388971443560e-03 
1.800000e-01  5.796864447619092e-03 
1.850000e-01  3.256394596793883e-02 
1.900000e-01  1.035400914177087e-01 
1.950000e-01  2.139562124771225e-01 
2.000000e-01  3.531634508217365e-01 
2.050000e-01  5.072234346224114e-01 
2.100000e-01  6.605545742512885e-01 
2.150000e-01  7.976555115502710e-01 
2.200000e-01  9.048229380548432e-01 
2.250000e-01  9.717981218951506e-01 
2.300000e-01  9.947224803875486e-01 
2.350000e-01  9.953164469593446e-01 
2.400000e-01  9.952298063235679e-01 
2.450000e-01  9.952485481648525e-01 
2.500000e-01  9.952125928982418e-01 
2.550000e-01  9.954231007393454e-01 
2.600000e-01  9.804860716144053e-01 
2.650000e-01  9.226797992823639e-01 
2.700000e-01  8.231363328782596e-01 
2.750000e-01  6.911622079706625e-01 
2.800000e-01  5.398847020076202e-01 
2.850000e-01  3.845780542776820e-01 
2.900000e-01  2.409601221404941e-01 
2.950000e-01  1.234584798932549e-01 
3.000000e-01  4.355108960191396e-02 
3.050000e-01  7.684344175652185e-03 
3.100000e-01  4.466769670756581e-03 
3.150000e-01  4.804616468880453e-03 
3.200000e-01  4.751025551450619e-03 
3.250000e-01  4.748375712462971e-03 
3.300000e-01  4.819511291017456e-03 
3.350000e-01  4.382757718095308e-03 
3.400000e-01  1.468336498287272e-02 
3.450000e-01  6.607044794534699e-02 
3.500000e-01  1.601117067741037e-01 
3.550000e-01  2.882294740620317e-01 
3.600000e-01  4.377303040067252e-01 
3.650000e-01  5.935338309608627e-01 
3.700000e-01  7.398649165037791e-01 
3.750000e-01  8.619920369177880e-01 
3.800000e-01  9.478999916201807e-01 
3.850000e-01  9.901740544220939e-01 
3.900000e-01  9.956294581297646e-01 
3.950000e-01  9.951934991719894e-01 
4.000000e-01  9.952734821045975e-01 
4.050000e-01  9.952673601753578e-01 
4.100000e-01  9.952734197272021e-01 
4.150000e-01  9.952761547785631e-01 
4.200000e-01  9.952778986388526e-01 
4.250000e-01  9.952781717783906e-01 
4.300000e-01  9.952772548915715e-01 
4.350000e-01  9.952736030428230e-01 
4.400000e-01  9.952770347241758e-01 
4.450000e-01  9.952253330408871e-01 
4.500000e-01  9.955039523937560e-01 
4.550000e-01  9.930244915903984e-01 
4.600000e-01  9.597765492752821e-01 
4.650000e-01  8.822364599000788e-01 
4.700000e-01  7.664688029831912e-01 
4.750000e-01  6.237845567274034e-01 
4.800000e-01  4.685399856867192e-01 
4.850000e-01  3.164774134465776e-01 
4.900000e-01  1.829891438588576e-01 
4.950000e-01  8.140563817800175e-02 
5.000000e-01  2.132752043383610e-02 
5.050000e-01  4.668255739324044e-03 
5.100000e-01  4.754060154232191e-03 
5.150000e-01  4.735329408260074e-03 
5.200000e-01  4.734305533791620e-03 
5.250000e-01  4.731710684522476e-03 
5.300000e-01  4.730589432498837e-03 
5.350000e-01  4.730449302243514e-03 
5.400000e-01  4.731310707001715e-03 
5.450000e-01  4.733152088206766e-03 
5.500000e-01  4.735499990393860e-03 
5.550000e-01  4.740690391255458e-03 
5.600000e-01  4.733062639345133e-03 
5.650000e-01  4.812265751828536e-03 
5.700000e-01  4.367932959849833e-03 
5.750000e-01  1.006202015913921e-02 
5.800000e-01  5.288281841887417e-02 
5.850000e-01  1.392804871846922e-01 
5.900000e-01  2.617699622453680e-01 
5.950000e-01  4.082972712207864e-01 
6.000000e-01  5.641111624793547e-01 
6.050000e-01  7.134369797928185e-01 
6.100000e-01  8.412151039517453e-01 
6.150000e-01  9.347918726714765e-01 
6.200000e-01  9.856543157436641e-01 
6.250000e-01  9.956240431884658e-01 
6.300000e-01  9.951787043252317e-01 
6.350000e-01  9.952526433135029e-01 
6.400000e-01  9.952415085129201e-01 
6.450000e-01  9.952415098631398e-01 
6.500000e-01  9.952527565326930e-01 
6.550000e-01  9.951783196541794e-01 
6.600000e-01  9.956266687412195e-01 
6.650000e-01  9.899412542859951e-01 
6.700000e-01  9.471634436106949e-01 
6.750000e-01  8.608182952138416e-01 
6.800000e-01  7.383770710919688e-01 
6.850000e-01  5.918849077524974e-01 
6.900000e-01  4.360870193858685e-01 
6.950000e-01  2.867547082772005e-01 
7.000000e-01  1.589470203658301e-01 
7.050000e-01  6.531988031089055e-02 
7.100000e-01  1.439244698815490e-02 
7.150000e-01  4.377461658583733e-03 
7.200000e-01  4.821476505329058e-03 
7.250000e-01  4.747718826516046e-03 
7.300000e-01  4.759090853023191e-03 
7.350000e-01  4.757197841771012e-03 
7.400000e-01  4.757947366482078e-03 
7.450000e-01  4.754704556664071e-03 
7.500000e-01  4.775112931091293e-03 
7.550000e-01  4.646652983238619e-03 
7.600000e-01  5.575001156297122e-03 
7.650000e-01  3.082747512058112e-02 
7.700000e-01  1.002478396423989e-01 
7.750000e-01  2.094063133406851e-01 
7.800000e-01  3.478041186671406e-01 
7.850000e-01  5.015930330653658e-01 
7.900000e-01  6.552211986096936e-01 
7.950000e-01  7.931544530111861e-01 
8.000000e-01  9.015964178872855e-01 
8.050000e-01  9.701343417522182e-01 
8.100000e-01  9.945388239900589e-01 
8.150000e-01  9.953396100727333e-01 
8.200000e-01  9.952269167270946e-01 
8.250000e-01  9.952449204307742e-01 
8.300000e-01  9.952408187927280e-01 
8.350000e-01  9.952492832706076e-01 
8.400000e-01  9.951970088683356e-01 
8.450000e-01  9.955166166263704e-01 
8.500000e-01  9.823652741562037e-01 
8.550000e-01  9.268862712093801e-01 
8.600000e-01  8.293231668067833e-01 
8.650000e-01  6.987244180705039e-01 
8.700000e-01  5.480620051027408e-01 
8.750000e-01  3.925421147594077e-01 
8.800000e-01  2.479058332691884e-01 
8.850000e-01  1.286933366560854e-01 
8.900000e-01  4.657974857337440e-02 
8.950000e-01  8.375554323171641e-03 
9.000000e-01  4.430256914474175e-03 
9.050000e-01  4.811308923674712e-03 
9.100000e-01  4.749280498467950e-03 
9.150000e-01  4.754792877734645e-03 
9.200000e-01  4.780555434768199e-03 
9.250000e-01  4.610412372538611e-03 
9.300000e-01  5.898856176689804e-03 
9.350000e-01  3.333236167764040e-02 
9.400000e-01  1.049853254979162e-01 
9.450000e-01  2.159469860936473e-01 
9.500000e-01  3.555036593516744e-01 
9.550000e-01  5.096779967434787e-01 
9.600000e-01  6.628757587300983e-01 
9.650000e-01  7.996101932720400e-01 
9.700000e-01  9.062188658617435e-01 
9.750000e-01  9.725107884035504e-01 
9.800000e-01  9.947963452218554e-01 
9.850000e-01  9.953067181645507e-01 
9.900000e-01  9.952322220993690e-01 
9.950000e-01  9.952440263609313e-01 
1.000000e+00  9.952419094544979e-01 
