TITLE ="t=153.288398" 
VARIABLES = "x"                 "phi" 
ZONE I=201, ZONETYPE=Ordered, DATAPACKING=POINT
0.000000e+00  9.958394543014959e-01 
5.000000e-03  9.925699109204492e-01 
1.000000e-02  9.579926030980046e-01 
1.500000e-02  8.792952504989824e-01 
2.000000e-02  7.627256140593990e-01 
2.500000e-02  6.196540648197858e-01 
3.000000e-02  4.644476608871203e-01 
3.500000e-02  3.128131723392938e-01 
4.000000e-02  1.800639355848768e-01 
4.500000e-02  7.941363754433647e-02 
5.000000e-02  2.030531950756227e-02 
5.500000e-02  3.929040391018828e-03 
6.000000e-02  1.691779787046762e-02 
6.500000e-02  7.164369543417091e-02 
7.000000e-02  1.685580099526171e-01 
7.500000e-02  2.987015746192954e-01 
8.000000e-02  4.491545779774599e-01 
8.500000e-02  6.047343437124266e-01 
9.000000e-02  7.496934692517393e-01 
9.500000e-02  8.694561694280674e-01 
1.000000e-01  9.522837518957532e-01 
1.050000e-01  9.912416218861040e-01 
1.100000e-01  9.961369531252243e-01 
1.150000e-01  9.890373126002119e-01 
1.200000e-01  9.443655925162255e-01 
1.250000e-01  8.562995295656404e-01 
1.300000e-01  7.325703768321581e-01 
1.350000e-01  5.853706000715178e-01 
1.400000e-01  4.295236490792376e-01 
1.450000e-01  2.808061330658615e-01 
1.500000e-01  1.542090825382500e-01 
1.550000e-01  6.225093651740969e-02 
1.600000e-01  1.321917389683885e-02 
1.650000e-01  4.356766194190382e-03 
1.700000e-01  4.835682367637873e-03 
1.750000e-01  4.678342059902282e-03 
1.800000e-01  5.238399561271086e-03 
1.850000e-01  2.780250630583614e-02 
1.900000e-01  9.439357032795609e-02 
1.950000e-01  2.012466492324473e-01 
2.000000e-01  3.381411369998835e-01 
2.050000e-01  4.913968128508590e-01 
2.100000e-01  6.455206558954919e-01 
2.150000e-01  7.849240958408221e-01 
2.200000e-01  8.956469796082472e-01 
2.250000e-01  9.670041324086879e-01 
2.300000e-01  9.941467196630087e-01 
2.350000e-01  9.953847564992370e-01 
2.400000e-01  9.952183450720639e-01 
2.450000e-01  9.952545317278860e-01 
2.500000e-01  9.951860016773879e-01 
2.550000e-01  9.955770888870186e-01 
2.600000e-01  9.839275904947891e-01 
2.650000e-01  9.305397993336734e-01 
2.700000e-01  8.347746761510362e-01 
2.750000e-01  7.054416550629986e-01 
2.800000e-01  5.553694311683852e-01 
2.850000e-01  3.996987925822064e-01 
2.900000e-01  2.541871160909825e-01 
2.950000e-01  1.334711984001776e-01 
3.000000e-01  4.939862859800077e-02 
3.050000e-01  9.091252166695724e-03 
3.100000e-01  4.401118021054926e-03 
3.150000e-01  4.816540243114422e-03 
3.200000e-01  4.749758433101684e-03 
3.250000e-01  4.748559956329441e-03 
3.300000e-01  4.824086696336383e-03 
3.350000e-01  4.361162944560967e-03 
3.400000e-01  1.341228804438594e-02 
3.450000e-01  6.276983270151359e-02 
3.500000e-01  1.550180310313488e-01 
3.550000e-01  2.818289432045823e-01 
3.600000e-01  4.306599224246069e-01 
3.650000e-01  5.865074962498120e-01 
3.700000e-01  7.335951155537903e-01 
3.750000e-01  8.571119432966429e-01 
3.800000e-01  9.448902152924384e-01 
3.850000e-01  9.892445148515385e-01 
3.900000e-01  9.956390509039358e-01 
3.950000e-01  9.951759449413228e-01 
4.000000e-01  9.952530579300461e-01 
4.050000e-01  9.952411623886963e-01 
4.100000e-01  9.952430490219574e-01 
4.150000e-01  9.952427790641580e-01 
4.200000e-01  9.952428513653504e-01 
4.250000e-01  9.952428352322014e-01 
4.300000e-01  9.952430567703010e-01 
4.350000e-01  9.952418079242559e-01 
4.400000e-01  9.952499550907417e-01 
4.450000e-01  9.951975958468842e-01 
4.500000e-01  9.955185537258605e-01 
4.550000e-01  9.925530558743014e-01 
4.600000e-01  9.575773395240237e-01 
4.650000e-01  8.785192284136781e-01 
4.700000e-01  7.616806598739588e-01 
4.750000e-01  6.184629343243937e-01 
4.800000e-01  4.632493720415128e-01 
4.850000e-01  3.117477155883955e-01 
4.900000e-01  1.792570429298395e-01 
4.950000e-01  7.896291935191808e-02 
5.000000e-01  2.026844521957306e-02 
5.050000e-01  4.620609875863373e-03 
5.100000e-01  4.779904182007545e-03 
5.150000e-01  4.754435950046876e-03 
5.200000e-01  4.758351227330931e-03 
5.250000e-01  4.757691101449536e-03 
5.300000e-01  4.757745632049177e-03 
5.350000e-01  4.757689828324431e-03 
5.400000e-01  4.757643157728830e-03 
5.450000e-01  4.757646920191101e-03 
5.500000e-01  4.757310784446255e-03 
5.550000e-01  4.759154016514361e-03 
5.600000e-01  4.747062536017829e-03 
5.650000e-01  4.824980640068791e-03 
5.700000e-01  4.356894572091779e-03 
5.750000e-01  1.110766519845623e-02 
5.800000e-01  5.620740945274124e-02 
5.850000e-01  1.446591262004490e-01 
5.900000e-01  2.686782504671685e-01 
5.950000e-01  4.160397923163828e-01 
6.000000e-01  5.719026869934811e-01 
6.050000e-01  7.204887492958503e-01 
6.100000e-01  8.468216058782810e-01 
6.150000e-01  9.384129501813585e-01 
6.200000e-01  9.870270404659437e-01 
6.250000e-01  9.956435253713876e-01 
6.300000e-01  9.951748119197953e-01 
6.350000e-01  9.952528802815819e-01 
6.400000e-01  9.952411373655760e-01 
6.450000e-01  9.952411907890466e-01 
6.500000e-01  9.952528667761128e-01 
6.550000e-01  9.951757197306058e-01 
6.600000e-01  9.956396456208179e-01 
6.650000e-01  9.891957601860676e-01 
6.700000e-01  9.447366934872650e-01 
6.750000e-01  8.568637474442878e-01 
6.800000e-01  7.332762857349472e-01 
6.850000e-01  5.861500942366561e-01 
6.900000e-01  4.303002456315734e-01 
6.950000e-01  2.815035125294235e-01 
7.000000e-01  1.547595555991113e-01 
7.050000e-01  6.260338068394583e-02 
7.100000e-01  1.334999785208019e-02 
7.150000e-01  4.360413301712002e-03 
7.200000e-01  4.824562412891215e-03 
7.250000e-01  4.747281566757225e-03 
7.300000e-01  4.759220769763753e-03 
7.350000e-01  4.757268707637602e-03 
7.400000e-01  4.757992101399805e-03 
7.450000e-01  4.755078518538867e-03 
7.500000e-01  4.773388511142104e-03 
7.550000e-01  4.657916670101342e-03 
7.600000e-01  5.481326366071677e-03 
7.650000e-01  3.003918954213304e-02 
7.700000e-01  9.873704967994991e-02 
7.750000e-01  2.073087228955914e-01 
7.800000e-01  3.453259287236655e-01 
7.850000e-01  4.989829973883409e-01 
7.900000e-01  6.527426681239532e-01 
7.950000e-01  7.910563897996729e-01 
8.000000e-01  9.000854167252699e-01 
8.050000e-01  9.693465954261838e-01 
8.100000e-01  9.944459235515879e-01 
8.150000e-01  9.953507858229402e-01 
8.200000e-01  9.952251210316837e-01 
8.250000e-01  9.952452651976380e-01 
8.300000e-01  9.952405372108502e-01 
8.350000e-01  9.952510092673411e-01 
8.400000e-01  9.951860481403962e-01 
8.450000e-01  9.955793888627139e-01 
8.500000e-01  9.840019306729058e-01 
8.550000e-01  9.307181209092709e-01 
8.600000e-01  8.350428889528834e-01 
8.650000e-01  7.057735689566700e-01 
8.700000e-01  5.557316294176461e-01 
8.750000e-01  4.000545024028616e-01 
8.800000e-01  2.545002696677314e-01 
8.850000e-01  1.337104353480262e-01 
8.900000e-01  4.954107701112017e-02 
8.950000e-01  9.129214147945141e-03 
9.000000e-01  4.399709176401890e-03 
9.050000e-01  4.816863083332721e-03 
9.100000e-01  4.748487185160541e-03 
9.150000e-01  4.755397104966017e-03 
9.200000e-01  4.778214985434926e-03 
9.250000e-01  4.625193518660501e-03 
9.300000e-01  5.762803655942127e-03 
9.350000e-01  3.231733356185706e-02 
9.400000e-01  1.030761937052987e-01 
9.450000e-01  2.133170700159451e-01 
9.500000e-01  3.524120093201551e-01 
9.550000e-01  5.064351628596081e-01 
9.600000e-01  6.598089895547200e-01 
9.650000e-01  7.970274177152922e-01 
9.700000e-01  9.043739849128132e-01 
9.750000e-01  9.715682076938853e-01 
9.800000e-01  9.946981625363038e-01 
9.850000e-01  9.953195857087420e-01 
9.900000e-01  9.952301610063646e-01 
9.950000e-01  9.952443500621635e-01 
1.000000e+00  9.952418023394385e-01 
