TITLE ="t=83.288398" 
VARIABLES = "x"                 "phi" 
ZONE I=201, ZONETYPE=Ordered, DATAPACKING=POINT
0.000000e+00  9.958022697859787e-01 
5.000000e-03  9.927843073961932e-01 
1.000000e-02  9.590729906149303e-01 
1.500000e-02  8.812201120307704e-01 
2.000000e-02  7.653274663309143e-01 
2.500000e-02  6.226872005917777e-01 
3.000000e-02  4.676188402971454e-01 
3.500000e-02  3.158143125885493e-01 
4.000000e-02  1.826061551572526e-01 
4.500000e-02  8.126056826525782e-02 
5.000000e-02  2.131372464211267e-02 
5.500000e-02  4.582770803508721e-03 
6.000000e-02  2.221262630744347e-02 
6.500000e-02  8.319606364603492e-02 
7.000000e-02  1.854086051747327e-01 
7.500000e-02  3.192046691587177e-01 
8.000000e-02  4.712518632919728e-01 
8.500000e-02  6.261908056750580e-01 
9.000000e-02  7.683437413278582e-01 
9.500000e-02  8.834452117563321e-01 
1.000000e-01  9.602950907635629e-01 
1.050000e-01  9.929631639770838e-01 
1.100000e-01  9.959715051446981e-01 
1.150000e-01  9.845337685658228e-01 
1.200000e-01  9.318957466550607e-01 
1.250000e-01  8.367766445286381e-01 
1.300000e-01  7.078974294446401e-01 
1.350000e-01  5.580353638777164e-01 
1.400000e-01  4.023080012726247e-01 
1.450000e-01  2.564789038610630e-01 
1.500000e-01  1.352199209969849e-01 
1.550000e-01  5.044078941049222e-02 
1.600000e-01  9.372954107205489e-03 
1.650000e-01  4.388761446280795e-03 
1.700000e-01  4.832887218441901e-03 
1.750000e-01  4.655605247593632e-03 
1.800000e-01  5.420328390927519e-03 
1.850000e-01  2.948858873370966e-02 
1.900000e-01  9.767491368528819e-02 
1.950000e-01  2.058305915753461e-01 
2.000000e-01  3.435772835184041e-01 
2.050000e-01  4.971394639581915e-01 
2.100000e-01  6.509902894953984e-01 
2.150000e-01  7.895711629583729e-01 
2.200000e-01  8.990135392733831e-01 
2.250000e-01  9.687847876285326e-01 
2.300000e-01  9.943772911209612e-01 
2.350000e-01  9.953589665234015e-01 
2.400000e-01  9.952227077955225e-01 
2.450000e-01  9.952522027266072e-01 
2.500000e-01  9.951963913187659e-01 
2.550000e-01  9.955178628305670e-01 
2.600000e-01  9.823915990643342e-01 
2.650000e-01  9.269466982411055e-01 
2.700000e-01  8.294129857723952e-01 
2.750000e-01  6.988350114671510e-01 
2.800000e-01  5.481823557478710e-01 
2.850000e-01  3.926600701706187e-01 
2.900000e-01  2.480094406954801e-01 
2.950000e-01  1.287721601503777e-01 
3.000000e-01  4.662611559062422e-02 
3.050000e-01  8.386924282917960e-03 
3.100000e-01  4.429849238669631e-03 
3.150000e-01  4.811399827459031e-03 
3.200000e-01  4.750498988898778e-03 
3.250000e-01  4.748647963597965e-03 
3.300000e-01  4.822793137074776e-03 
3.350000e-01  4.368560918298319e-03 
3.400000e-01  1.391556038053452e-02 
3.450000e-01  6.409320537042554e-02 
3.500000e-01  1.570629129406182e-01 
3.550000e-01  2.843963434327206e-01 
3.600000e-01  4.334915131983963e-01 
3.650000e-01  5.893157305075607e-01 
3.700000e-01  7.360949704076601e-01 
3.750000e-01  8.590524478256235e-01 
3.800000e-01  9.460842116471173e-01 
3.850000e-01  9.896159086213211e-01 
3.900000e-01  9.956331584344201e-01 
3.950000e-01  9.951770672877431e-01 
4.000000e-01  9.952529343408371e-01 
4.050000e-01  9.952412241751341e-01 
4.100000e-01  9.952430766842056e-01 
4.150000e-01  9.952428069883182e-01 
4.200000e-01  9.952428739433490e-01 
4.250000e-01  9.952428548982174e-01 
4.300000e-01  9.952430631657341e-01 
4.350000e-01  9.952418665694740e-01 
4.400000e-01  9.952496474198341e-01 
4.450000e-01  9.951996327364633e-01 
4.500000e-01  9.955067800488181e-01 
4.550000e-01  9.927311216879132e-01 
4.600000e-01  9.584585522714085e-01 
4.650000e-01  8.800739966241301e-01 
4.700000e-01  7.637630245163463e-01 
4.750000e-01  6.208658327878697e-01 
4.800000e-01  4.657302796285501e-01 
4.850000e-01  3.140556156907386e-01 
4.900000e-01  1.811600783375748e-01 
4.950000e-01  8.027487467635479e-02 
5.000000e-01  2.087865759245902e-02 
5.050000e-01  4.658361046296272e-03 
5.100000e-01  4.773727223857271e-03 
5.150000e-01  4.755374529217888e-03 
5.200000e-01  4.758180898258266e-03 
5.250000e-01  4.757689842748760e-03 
5.300000e-01  4.757713716100935e-03 
5.350000e-01  4.757658424350106e-03 
5.400000e-01  4.757607514002227e-03 
5.450000e-01  4.757607036547563e-03 
5.500000e-01  4.757271419486143e-03 
5.550000e-01  4.759083912337571e-03 
5.600000e-01  4.747161644462942e-03 
5.650000e-01  4.823944246517753e-03 
5.700000e-01  4.362246520155945e-03 
5.750000e-01  1.066886562535851e-02 
5.800000e-01  5.483433338938693e-02 
5.850000e-01  1.424413749897952e-01 
5.900000e-01  2.658300123674900e-01 
5.950000e-01  4.128471369220933e-01 
6.000000e-01  5.686897197779905e-01 
6.050000e-01  7.175817709843032e-01 
6.100000e-01  8.445130840549027e-01 
6.150000e-01  9.369273618210407e-01 
6.200000e-01  9.864735182098462e-01 
6.250000e-01  9.956373497639802e-01 
6.300000e-01  9.951758849856170e-01 
6.350000e-01  9.952526811436415e-01 
6.400000e-01  9.952411434228544e-01 
6.450000e-01  9.952411998284134e-01 
6.500000e-01  9.952527528312436e-01 
6.550000e-01  9.951765307322988e-01 
6.600000e-01  9.956353057542245e-01 
6.650000e-01  9.894878263771929e-01 
6.700000e-01  9.456684505307202e-01 
6.750000e-01  8.583754217042124e-01 
6.800000e-01  7.352220308054959e-01 
6.850000e-01  5.883345477740488e-01 
6.900000e-01  4.325016826384647e-01 
6.950000e-01  2.834983700538413e-01 
7.000000e-01  1.563471140805280e-01 
7.050000e-01  6.362917606692235e-02 
7.100000e-01  1.373789146871196e-02 
7.150000e-01  4.365730476316647e-03 
7.200000e-01  4.823632809021827e-03 
7.250000e-01  4.747451432948110e-03 
7.300000e-01  4.759215260654005e-03 
7.350000e-01  4.757279062737212e-03 
7.400000e-01  4.758017578130401e-03 
7.450000e-01  4.754932241881983e-03 
7.500000e-01  4.774302132180248e-03 
7.550000e-01  4.652211045619091e-03 
7.600000e-01  5.528661449103984e-03 
7.650000e-01  3.044118526222213e-02 
7.700000e-01  9.950844788534621e-02 
7.750000e-01  2.083801391341115e-01 
7.800000e-01  3.465919565840274e-01 
7.850000e-01  5.003165166897783e-01 
7.900000e-01  6.540091313794454e-01 
7.950000e-01  7.921286305459717e-01 
8.000000e-01  9.008579382504869e-01 
8.050000e-01  9.697498590689655e-01 
8.100000e-01  9.944939236521400e-01 
8.150000e-01  9.953450360630781e-01 
8.200000e-01  9.952260236965222e-01 
8.250000e-01  9.952450726760487e-01 
8.300000e-01  9.952406355866783e-01 
8.350000e-01  9.952502775311576e-01 
8.400000e-01  9.951905426895971e-01 
8.450000e-01  9.955537096093496e-01 
8.500000e-01  9.832742350870807e-01 
8.550000e-01  9.289921733429861e-01 
8.600000e-01  8.324561198887231e-01 
8.650000e-01  7.025785149229674e-01 
8.700000e-01  5.522496992145616e-01 
8.750000e-01  3.966388652093341e-01 
8.800000e-01  2.514969097837917e-01 
8.850000e-01  1.314198089016050e-01 
8.900000e-01  4.818192643651588e-02 
8.950000e-01  8.773709925531859e-03 
9.000000e-01  4.413016166779438e-03 
9.050000e-01  4.814443983699503e-03 
9.100000e-01  4.748845129742984e-03 
9.150000e-01  4.755139545770139e-03 
9.200000e-01  4.779287908318029e-03 
9.250000e-01  4.618509415532986e-03 
9.300000e-01  5.823725971744262e-03 
9.350000e-01  3.277782566861959e-02 
9.400000e-01  1.039438949344246e-01 
9.450000e-01  2.145131517758443e-01 
9.500000e-01  3.538185889646989e-01 
9.550000e-01  5.079109187255592e-01 
9.600000e-01  6.612050017443108e-01 
9.650000e-01  7.982035592487002e-01 
9.700000e-01  9.052147129764735e-01 
9.750000e-01  9.719986534253262e-01 
9.800000e-01  9.947436115118284e-01 
9.850000e-01  9.953136597772555e-01 
9.900000e-01  9.952310821755546e-01 
9.950000e-01  9.952441725015926e-01 
1.000000e+00  9.952418217494065e-01 
