TITLE ="t=213.288398" 
VARIABLES = "x"                 "phi" 
ZONE I=201, ZONETYPE=Ordered, DATAPACKING=POINT
0.000000e+00  9.959446463113061e-01 
5.000000e-03  9.918928859953738e-01 
1.000000e-02  9.548825819281258e-01 
1.500000e-02  8.738756110898334e-01 
2.000000e-02  7.555094560604578e-01 
2.500000e-02  6.113621179842724e-01 
3.000000e-02  4.559196831056613e-01 
3.500000e-02  3.049146514556157e-01 
4.000000e-02  1.735907472065131e-01 
4.500000e-02  7.500097821267125e-02 
5.000000e-02  1.832287719896251e-02 
5.500000e-02  3.758290499898526e-03 
6.000000e-02  1.633943966587521e-02 
6.500000e-02  7.030188182832253e-02 
7.000000e-02  1.665606530639681e-01 
7.500000e-02  2.962441741981901e-01 
8.000000e-02  4.464847237983222e-01 
8.500000e-02  6.021231504671589e-01 
9.000000e-02  7.474056799531638e-01 
9.500000e-02  8.677208048389010e-01 
1.000000e-01  9.512664830214620e-01 
1.050000e-01  9.909958254723079e-01 
1.100000e-01  9.961093119379751e-01 
1.150000e-01  9.901800501355020e-01 
1.200000e-01  9.482067759361964e-01 
1.250000e-01  8.625971327672551e-01 
1.300000e-01  7.407164018612262e-01 
1.350000e-01  5.945461699010510e-01 
1.400000e-01  4.387962432560243e-01 
1.450000e-01  2.892327510456931e-01 
1.500000e-01  1.609403219998626e-01 
1.550000e-01  6.662986292191815e-02 
1.600000e-01  1.491424515939254e-02 
1.650000e-01  4.387416364099253e-03 
1.700000e-01  4.829703271730740e-03 
1.750000e-01  4.683449726282268e-03 
1.800000e-01  5.207028938093519e-03 
1.850000e-01  2.749733096829719e-02 
1.900000e-01  9.379430801946288e-02 
1.950000e-01  2.004064450845299e-01 
2.000000e-01  3.371424802867993e-01 
2.050000e-01  4.903399389125826e-01 
2.100000e-01  6.445122333054413e-01 
2.150000e-01  7.840654812134389e-01 
2.200000e-01  8.950228607868441e-01 
2.250000e-01  9.666713723262020e-01 
2.300000e-01  9.941013533536714e-01 
2.350000e-01  9.953896327525982e-01 
2.400000e-01  9.952174544541986e-01 
2.450000e-01  9.952555793303018e-01 
2.500000e-01  9.951803370017245e-01 
2.550000e-01  9.956091309053395e-01 
2.600000e-01  9.850207822431171e-01 
2.650000e-01  9.332050155510384e-01 
2.700000e-01  8.388032836919136e-01 
2.750000e-01  7.104406483080747e-01 
2.800000e-01  5.608358378764247e-01 
2.850000e-01  4.050779077953446e-01 
2.900000e-01  2.589336901912611e-01 
2.950000e-01  1.371098281345873e-01 
3.000000e-01  5.158073181582555e-02 
3.050000e-01  9.693469375756512e-03 
3.100000e-01  4.382430675873080e-03 
3.150000e-01  4.819942791415934e-03 
3.200000e-01  4.749284306307559e-03 
3.250000e-01  4.748556023570749e-03 
3.300000e-01  4.824681295380788e-03 
3.350000e-01  4.357770720598018e-03 
3.400000e-01  1.311023547250962e-02 
3.450000e-01  6.195967947293957e-02 
3.500000e-01  1.537593093749806e-01 
3.550000e-01  2.802440490152579e-01 
3.600000e-01  4.289083112526063e-01 
3.650000e-01  5.847670599136428e-01 
3.700000e-01  7.320425396567906e-01 
3.750000e-01  8.559031681888263e-01 
3.800000e-01  9.441419849208441e-01 
3.850000e-01  9.890056260817055e-01 
3.900000e-01  9.956419982117531e-01 
3.950000e-01  9.951753745088681e-01 
4.000000e-01  9.952531135947739e-01 
4.050000e-01  9.952411255462340e-01 
4.100000e-01  9.952430298156386e-01 
4.150000e-01  9.952427602306975e-01 
4.200000e-01  9.952428358052356e-01 
4.250000e-01  9.952428211609730e-01 
4.300000e-01  9.952430529923230e-01 
4.350000e-01  9.952417584650333e-01 
4.400000e-01  9.952502175537833e-01 
4.450000e-01  9.951958529965540e-01 
4.500000e-01  9.955285749338925e-01 
4.550000e-01  9.923928361064089e-01 
4.600000e-01  9.568104527866529e-01 
4.650000e-01  8.771736185648029e-01 
4.700000e-01  7.598829459600384e-01 
4.750000e-01  6.163920156475747e-01 
4.800000e-01  4.611143635045675e-01 
4.850000e-01  3.097647043659861e-01 
4.900000e-01  1.776252822076833e-01 
4.950000e-01  7.784204113916621e-02 
5.000000e-01  1.975244227038844e-02 
5.050000e-01  4.590401596593849e-03 
5.100000e-01  4.784906847970827e-03 
5.150000e-01  4.753673388004714e-03 
5.200000e-01  4.758485524378347e-03 
5.250000e-01  4.757688570741087e-03 
5.300000e-01  4.757767859177151e-03 
5.350000e-01  4.757711591810774e-03 
5.400000e-01  4.757668339362163e-03 
5.450000e-01  4.757675278701484e-03 
5.500000e-01  4.757340016216085e-03 
5.550000e-01  4.759199503619623e-03 
5.600000e-01  4.747025783845971e-03 
5.650000e-01  4.825504928100012e-03 
5.700000e-01  4.354271666697417e-03 
5.750000e-01  1.143732210855051e-02 
5.800000e-01  5.720810939178551e-02 
5.850000e-01  1.462638780232168e-01 
5.900000e-01  2.707318362416912e-01 
5.950000e-01  4.183358599953313e-01 
6.000000e-01  5.742081018963439e-01 
6.050000e-01  7.225693669491421e-01 
6.100000e-01  8.484681313889765e-01 
6.150000e-01  9.394654342740385e-01 
6.200000e-01  9.874095200009966e-01 
6.250000e-01  9.956461937393893e-01 
6.300000e-01  9.951743634471206e-01 
6.350000e-01  9.952529762917927e-01 
6.400000e-01  9.952411420987198e-01 
6.450000e-01  9.952411891140535e-01 
6.500000e-01  9.952529272370944e-01 
6.550000e-01  9.951752976571898e-01 
6.600000e-01  9.956418939090813e-01 
6.650000e-01  9.890103193882067e-01 
6.700000e-01  9.441568870902552e-01 
6.750000e-01  8.559274305909550e-01 
6.800000e-01  7.320738875034617e-01 
6.850000e-01  5.848023818131020e-01 
6.900000e-01  4.289440358962598e-01 
6.950000e-01  2.802765419460840e-01 
7.000000e-01  1.537852716587972e-01 
7.050000e-01  6.197652334062791e-02 
7.100000e-01  1.311659964726787e-02 
7.150000e-01  4.357840603959674e-03 
7.200000e-01  4.825009108281885e-03 
7.250000e-01  4.747198162409819e-03 
7.300000e-01  4.759223708631247e-03 
7.350000e-01  4.757267644069576e-03 
7.400000e-01  4.757973465317059e-03 
7.450000e-01  4.755221854013691e-03 
7.500000e-01  4.772525125205635e-03 
7.550000e-01  4.663341742624588e-03 
7.600000e-01  5.437024190041786e-03 
7.650000e-01  2.965510702572579e-02 
7.700000e-01  9.799759352983249e-02 
7.750000e-01  2.062802813025618e-01 
7.800000e-01  3.441096506227587e-01 
7.850000e-01  4.977009980260109e-01 
7.900000e-01  6.515242981111541e-01 
7.950000e-01  7.900239986364563e-01 
8.000000e-01  8.993406118980996e-01 
8.050000e-01  9.689565421811470e-01 
8.100000e-01  9.943985372576530e-01 
8.150000e-01  9.953563717710882e-01 
8.200000e-01  9.952242426388314e-01 
8.250000e-01  9.952454477574133e-01 
8.300000e-01  9.952404714505509e-01 
8.350000e-01  9.952515296293054e-01 
8.400000e-01  9.951829226422194e-01 
8.450000e-01  9.955971608316954e-01 
8.500000e-01  9.845816088986656e-01 
8.550000e-01  9.321222068070618e-01 
8.600000e-01  8.371610196980235e-01 
8.650000e-01  7.083990765129282e-01 
8.700000e-01  5.586003602534610e-01 
8.750000e-01  4.028753812681807e-01 
8.800000e-01  2.569874045960713e-01 
8.850000e-01  1.356147860830171e-01 
8.900000e-01  5.068033206597318e-02 
8.950000e-01  9.439817854290674e-03 
9.000000e-01  4.389609210876257e-03 
9.050000e-01  4.818715617375515e-03 
9.100000e-01  4.748218774299099e-03 
9.150000e-01  4.755606185172010e-03 
9.200000e-01  4.777349961875815e-03 
9.250000e-01  4.630614402612722e-03 
9.300000e-01  5.714289754298676e-03 
9.350000e-01  3.194298423769348e-02 
9.400000e-01  1.023685561271763e-01 
9.450000e-01  2.123403183606753e-01 
9.500000e-01  3.512623761332008e-01 
9.550000e-01  5.052281385809513e-01 
9.600000e-01  6.586663710897123e-01 
9.650000e-01  7.960639027411328e-01 
9.700000e-01  9.036842533013969e-01 
9.750000e-01  9.712138058179735e-01 
9.800000e-01  9.946599218345418e-01 
9.850000e-01  9.953245005525342e-01 
9.900000e-01  9.952293953406063e-01 
9.950000e-01  9.952444974903973e-01 
1.000000e+00  9.952417861162212e-01 
