TITLE ="t=0.000016" 
VARIABLES = "x"                 "phi" 
ZONE I=201, ZONETYPE=Ordered, DATAPACKING=POINT
0.000000e+00  5.175363476021485e-01 
5.000000e-03  5.200988208339178e-01 
1.000000e-02  5.197490350926536e-01 
1.500000e-02  5.107998323451702e-01 
2.000000e-02  5.051187260295641e-01 
2.500000e-02  5.100794298761172e-01 
3.000000e-02  5.130903956007354e-01 
3.500000e-02  5.051457779167797e-01 
4.000000e-02  4.992640834431334e-01 
4.500000e-02  5.080264824587147e-01 
5.000000e-02  5.211517407660269e-01 
5.500000e-02  5.179553039165911e-01 
6.000000e-02  4.920319524445731e-01 
6.500000e-02  4.619281566660490e-01 
7.000000e-02  4.557478970825408e-01 
7.500000e-02  4.802249908788078e-01 
8.000000e-02  5.124181204943016e-01 
8.500000e-02  5.299874631272816e-01 
9.000000e-02  5.339801408263847e-01 
9.500000e-02  5.331508997122040e-01 
1.000000e-01  5.265337698090242e-01 
1.050000e-01  5.129550875605865e-01 
1.100000e-01  4.993086892771357e-01 
1.150000e-01  4.916261167176464e-01 
1.200000e-01  4.893171762174871e-01 
1.250000e-01  4.892168540602839e-01 
1.300000e-01  4.907439099288630e-01 
1.350000e-01  4.954172800256215e-01 
1.400000e-01  5.055042236012769e-01 
1.450000e-01  5.161637036349853e-01 
1.500000e-01  5.138270149479477e-01 
1.550000e-01  4.948174830380664e-01 
1.600000e-01  4.773927222099481e-01 
1.650000e-01  4.760368510581408e-01 
1.700000e-01  4.813659432642186e-01 
1.750000e-01  4.841183781723211e-01 
1.800000e-01  4.926810602304999e-01 
1.850000e-01  5.093027729194769e-01 
1.900000e-01  5.195982089586849e-01 
1.950000e-01  5.175384569967859e-01 
2.000000e-01  5.149355785528961e-01 
2.050000e-01  5.152161588306539e-01 
2.100000e-01  5.078977592635454e-01 
2.150000e-01  4.945270273641753e-01 
2.200000e-01  4.919713967667926e-01 
2.250000e-01  5.035469961166623e-01 
2.300000e-01  5.127975278138833e-01 
2.350000e-01  5.115172406085405e-01 
2.400000e-01  5.077475619056191e-01 
2.450000e-01  5.072859631320314e-01 
2.500000e-01  5.066017122414620e-01 
2.550000e-01  5.044513792147605e-01 
2.600000e-01  5.063918522661314e-01 
2.650000e-01  5.154201817921368e-01 
2.700000e-01  5.216031477935361e-01 
2.750000e-01  5.106916715007238e-01 
2.800000e-01  4.876169744868010e-01 
2.850000e-01  4.772014008629131e-01 
2.900000e-01  4.937786252815243e-01 
2.950000e-01  5.201242208675397e-01 
3.000000e-01  5.254518764952331e-01 
3.050000e-01  5.020204782709987e-01 
3.100000e-01  4.747116846373970e-01 
3.150000e-01  4.692271847026028e-01 
3.200000e-01  4.833138632317203e-01 
3.250000e-01  4.941308483148186e-01 
3.300000e-01  4.864023277013204e-01 
3.350000e-01  4.667228341301767e-01 
3.400000e-01  4.563409620704501e-01 
3.450000e-01  4.707514965847682e-01 
3.500000e-01  5.042146764150200e-01 
3.550000e-01  5.333057852741799e-01 
3.600000e-01  5.382849063486900e-01 
3.650000e-01  5.197947031956656e-01 
3.700000e-01  4.964226372558068e-01 
3.750000e-01  4.877048990603858e-01 
3.800000e-01  4.980164985866432e-01 
3.850000e-01  5.156372713765771e-01 
3.900000e-01  5.218817767174238e-01 
3.950000e-01  5.079852752183849e-01 
4.000000e-01  4.892446910800619e-01 
4.050000e-01  4.907669055958615e-01 
4.100000e-01  5.122390375654099e-01 
4.150000e-01  5.249248631644813e-01 
4.200000e-01  5.129815307963165e-01 
4.250000e-01  4.979482102581556e-01 
4.300000e-01  5.018996147515786e-01 
4.350000e-01  5.111277333477803e-01 
4.400000e-01  5.034332027854572e-01 
4.450000e-01  4.883841586749768e-01 
4.500000e-01  4.893062280374506e-01 
4.550000e-01  5.061635365165111e-01 
4.600000e-01  5.171549034536366e-01 
4.650000e-01  5.119012119768267e-01 
4.700000e-01  4.994782551344186e-01 
4.750000e-01  4.912061163741331e-01 
4.800000e-01  4.929203242491782e-01 
4.850000e-01  5.037238518730466e-01 
4.900000e-01  5.105352081101053e-01 
4.950000e-01  5.006626297198978e-01 
5.000000e-01  4.849217939362033e-01 
5.050000e-01  4.889628023910936e-01 
5.100000e-01  5.127743503845628e-01 
5.150000e-01  5.230935776747724e-01 
5.200000e-01  5.017603884715952e-01 
5.250000e-01  4.726793502165970e-01 
5.300000e-01  4.669749984407301e-01 
5.350000e-01  4.819654004765294e-01 
5.400000e-01  4.912305941650256e-01 
5.450000e-01  4.860883946267672e-01 
5.500000e-01  4.822523682591376e-01 
5.550000e-01  4.885645541745509e-01 
5.600000e-01  4.958452106262753e-01 
5.650000e-01  4.927944637130975e-01 
5.700000e-01  4.809560175060886e-01 
5.750000e-01  4.729859191776626e-01 
5.800000e-01  4.800422448611141e-01 
5.850000e-01  4.996291620454751e-01 
5.900000e-01  5.140123659684875e-01 
5.950000e-01  5.098905058649278e-01 
6.000000e-01  4.976807555316758e-01 
6.050000e-01  4.967415124333932e-01 
6.100000e-01  5.048017577517288e-01 
6.150000e-01  5.017524878669845e-01 
6.200000e-01  4.834779963684191e-01 
6.250000e-01  4.749436016563096e-01 
6.300000e-01  4.943204251177422e-01 
6.350000e-01  5.230016854258769e-01 
6.400000e-01  5.288359460032599e-01 
6.450000e-01  5.087110312616654e-01 
6.500000e-01  4.907464576625468e-01 
6.550000e-01  4.966409120309671e-01 
6.600000e-01  5.167219161574687e-01 
6.650000e-01  5.259559111815310e-01 
6.700000e-01  5.119030373835917e-01 
6.750000e-01  4.859736587170302e-01 
6.800000e-01  4.705204918210447e-01 
6.850000e-01  4.753857965408821e-01 
6.900000e-01  4.883035677638154e-01 
6.950000e-01  4.905686228611000e-01 
7.000000e-01  4.814248918978690e-01 
7.050000e-01  4.779735486258073e-01 
7.100000e-01  4.866758119082850e-01 
7.150000e-01  4.920732565841321e-01 
7.200000e-01  4.814242571122380e-01 
7.250000e-01  4.642719980555355e-01 
7.300000e-01  4.592395878927678e-01 
7.350000e-01  4.737799568509771e-01 
7.400000e-01  4.977217210280075e-01 
7.450000e-01  5.102005272624708e-01 
7.500000e-01  4.997202482618355e-01 
7.550000e-01  4.815388269012506e-01 
7.600000e-01  4.782218654662868e-01 
7.650000e-01  4.878381778868801e-01 
7.700000e-01  4.893181558410742e-01 
7.750000e-01  4.775220094918186e-01 
7.800000e-01  4.730129857319367e-01 
7.850000e-01  4.868884976150811e-01 
7.900000e-01  5.001077961589943e-01 
7.950000e-01  4.949970656558754e-01 
8.000000e-01  4.863118600901494e-01 
8.050000e-01  4.956657043941348e-01 
8.100000e-01  5.136272740789765e-01 
8.150000e-01  5.130597969435428e-01 
8.200000e-01  4.947872588259511e-01 
8.250000e-01  4.878895186216616e-01 
8.300000e-01  5.053115654375399e-01 
8.350000e-01  5.248811559871152e-01 
8.400000e-01  5.240463667568501e-01 
8.450000e-01  5.127713056829110e-01 
8.500000e-01  5.123328322488361e-01 
8.550000e-01  5.232661279310521e-01 
8.600000e-01  5.313859520845639e-01 
8.650000e-01  5.295214673023495e-01 
8.700000e-01  5.189222099805623e-01 
8.750000e-01  5.010258323074552e-01 
8.800000e-01  4.819726814386788e-01 
8.850000e-01  4.749613298372418e-01 
8.900000e-01  4.852170112682724e-01 
8.950000e-01  4.988542482021895e-01 
9.000000e-01  5.019379409210366e-01 
9.050000e-01  4.986032720471625e-01 
9.100000e-01  5.009176192102279e-01 
9.150000e-01  5.041209834365448e-01 
9.200000e-01  4.968525716814905e-01 
9.250000e-01  4.856277080521132e-01 
9.300000e-01  4.901566334847236e-01 
9.350000e-01  5.122930341389855e-01 
9.400000e-01  5.318715817018385e-01 
9.450000e-01  5.318260203063588e-01 
9.500000e-01  5.193912992829245e-01 
9.550000e-01  5.134592932347887e-01 
9.600000e-01  5.170829123057971e-01 
9.650000e-01  5.168795208583903e-01 
9.700000e-01  5.075973999235764e-01 
9.750000e-01  5.035006133200258e-01 
9.800000e-01  5.143166244555127e-01 
9.850000e-01  5.263114578643933e-01 
9.900000e-01  5.182827669056537e-01 
9.950000e-01  4.930693429362127e-01 
1.000000e+00  4.788385942148977e-01 
