TITLE ="t=613.288398" 
VARIABLES = "x"                 "phi" 
ZONE I=201, ZONETYPE=Ordered, DATAPACKING=POINT
0.000000e+00  9.961699235287508e-01 
5.000000e-03  9.900578104545465e-01 
1.000000e-02  9.478072984041001e-01 
1.500000e-02  8.619403154329377e-01 
2.000000e-02  7.398613148593286e-01 
2.500000e-02  5.935743731022305e-01 
3.000000e-02  4.378020427650189e-01 
3.500000e-02  2.883127492367234e-01 
4.000000e-02  1.601827146318650e-01 
4.500000e-02  6.610403632666627e-02 
5.000000e-02  1.465545014738759e-02 
5.500000e-02  3.607025011029144e-03 
6.000000e-02  1.436321933174825e-02 
6.500000e-02  6.534090042676449e-02 
7.000000e-02  1.590077428361254e-01 
7.500000e-02  2.868411220574337e-01 
8.000000e-02  4.361825698224056e-01 
8.500000e-02  5.919722250071889e-01 
9.000000e-02  7.384398051378180e-01 
9.500000e-02  8.608428364164882e-01 
1.000000e-01  9.471402642237204e-01 
1.050000e-01  9.898626703333255e-01 
1.100000e-01  9.961955637668554e-01 
1.150000e-01  9.897273934606513e-01 
1.200000e-01  9.466755835995616e-01 
1.250000e-01  8.600801189339353e-01 
1.300000e-01  7.374553602428027e-01 
1.350000e-01  5.908678432745689e-01 
1.400000e-01  4.350734215053679e-01 
1.450000e-01  2.858430302881593e-01 
1.500000e-01  1.582244549163351e-01 
1.550000e-01  6.485219732024482e-02 
1.600000e-01  1.421055732399310e-02 
1.650000e-01  4.367759783378497e-03 
1.700000e-01  4.851233442361236e-03 
1.750000e-01  4.565401182329115e-03 
1.800000e-01  6.245661378682365e-03 
1.850000e-01  3.569662453262160e-02 
1.900000e-01  1.093728369713833e-01 
1.950000e-01  2.219556391576746e-01 
2.000000e-01  3.625401095619290e-01 
2.050000e-01  5.170348076612025e-01 
2.100000e-01  6.698105098083689e-01 
2.150000e-01  8.054271891268983e-01 
2.200000e-01  9.103477348083029e-01 
2.250000e-01  9.745879982507928e-01 
2.300000e-01  9.949942912230045e-01 
2.350000e-01  9.952795310061796e-01 
2.400000e-01  9.952348341649040e-01 
2.450000e-01  9.952537576255330e-01 
2.500000e-01  9.951740827400667e-01 
2.550000e-01  9.956463205714060e-01 
2.600000e-01  9.874396678227311e-01 
2.650000e-01  9.395496997360760e-01 
2.700000e-01  8.486005733693238e-01 
2.750000e-01  7.227371501411057e-01 
2.800000e-01  5.743943459517359e-01 
2.850000e-01  4.185216295980026e-01 
2.900000e-01  2.708982386521530e-01 
2.950000e-01  1.463941554616365e-01 
3.000000e-01  5.728961874556560e-02 
3.050000e-01  1.146452301425063e-02 
3.100000e-01  4.354148694992168e-03 
3.150000e-01  4.825262083790836e-03 
3.200000e-01  4.748631672918172e-03 
3.250000e-01  4.748670972347097e-03 
3.300000e-01  4.825251751994127e-03 
3.350000e-01  4.354708348901660e-03 
3.400000e-01  1.273497281695755e-02 
3.450000e-01  6.093485957287997e-02 
3.500000e-01  1.521592537734019e-01 
3.550000e-01  2.782242204979544e-01 
3.600000e-01  4.266718978522320e-01 
3.650000e-01  5.825412028392530e-01 
3.700000e-01  7.300532464946560e-01 
3.750000e-01  8.543503244320696e-01 
3.800000e-01  9.431757474117626e-01 
3.850000e-01  9.886902233987535e-01 
3.900000e-01  9.956449135020663e-01 
3.950000e-01  9.951747893659190e-01 
4.000000e-01  9.952531479871813e-01 
4.050000e-01  9.952410649305777e-01 
4.100000e-01  9.952429836230350e-01 
4.150000e-01  9.952427111767083e-01 
4.200000e-01  9.952427877506953e-01 
4.250000e-01  9.952427660252944e-01 
4.300000e-01  9.952430399148990e-01 
4.350000e-01  9.952414731408339e-01 
4.400000e-01  9.952516679219755e-01 
4.450000e-01  9.951860069560290e-01 
4.500000e-01  9.955841997446682e-01 
4.550000e-01  9.912954041545057e-01 
4.600000e-01  9.520897582966071e-01 
4.650000e-01  8.690405206743738e-01 
4.700000e-01  7.491081919232478e-01 
4.750000e-01  6.040505274022772e-01 
4.800000e-01  4.484541942072384e-01 
4.850000e-01  2.980685146731059e-01 
4.900000e-01  1.680689722194048e-01 
4.950000e-01  7.135969703874426e-02 
5.000000e-01  1.687614038531757e-02 
5.050000e-01  4.452078192646153e-03 
5.100000e-01  4.808490457037493e-03 
5.150000e-01  4.750024111860683e-03 
5.200000e-01  4.759056681627515e-03 
5.250000e-01  4.757618005569696e-03 
5.300000e-01  4.757816090754751e-03 
5.350000e-01  4.757759876425195e-03 
5.400000e-01  4.757735240818639e-03 
5.450000e-01  4.757757773352103e-03 
5.500000e-01  4.757439357474290e-03 
5.550000e-01  4.759310575156177e-03 
5.600000e-01  4.747180153120986e-03 
5.650000e-01  4.825501770859920e-03 
5.700000e-01  4.355236608093164e-03 
5.750000e-01  1.281249495060369e-02 
5.800000e-01  6.114797500906011e-02 
5.850000e-01  1.524924895062400e-01 
5.900000e-01  2.786451637122786e-01 
5.950000e-01  4.271381894545409e-01 
6.000000e-01  5.830054865720699e-01 
6.050000e-01  7.304683959610763e-01 
6.100000e-01  8.546746527168776e-01 
6.150000e-01  9.433779298334343e-01 
6.200000e-01  9.887567964652714e-01 
6.250000e-01  9.956443611266073e-01 
6.300000e-01  9.951748573585849e-01 
6.350000e-01  9.952530329837460e-01 
6.400000e-01  9.952412390230272e-01 
6.450000e-01  9.952412419406026e-01 
6.500000e-01  9.952530238651461e-01 
6.550000e-01  9.951749374182753e-01 
6.600000e-01  9.956439491913798e-01 
6.650000e-01  9.888050411339182e-01 
6.700000e-01  9.435249601922423e-01 
6.750000e-01  8.549106520876321e-01 
6.800000e-01  7.307705359542458e-01 
6.850000e-01  5.833434033607668e-01 
6.900000e-01  4.274775686214718e-01 
6.950000e-01  2.789515343642352e-01 
7.000000e-01  1.527350320633651e-01 
7.050000e-01  6.130312920236337e-02 
7.100000e-01  1.286904982751175e-02 
7.150000e-01  4.355653034426843e-03 
7.200000e-01  4.825413040234167e-03 
7.250000e-01  4.747167373733814e-03 
7.300000e-01  4.759279310222649e-03 
7.350000e-01  4.757362463884241e-03 
7.400000e-01  4.757905463844019e-03 
7.450000e-01  4.756362684657693e-03 
7.500000e-01  4.766053784051992e-03 
7.550000e-01  4.704647204697974e-03 
7.600000e-01  5.120243196036388e-03 
7.650000e-01  2.664506071828035e-02 
7.700000e-01  9.211359629447655e-02 
7.750000e-01  1.980460832862430e-01 
7.800000e-01  3.343341494994408e-01 
7.850000e-01  4.873654370533857e-01 
7.900000e-01  6.416716747903746e-01 
7.950000e-01  7.816442653003047e-01 
8.000000e-01  8.932597209417771e-01 
8.050000e-01  9.657271082186712e-01 
8.100000e-01  9.939687188812196e-01 
8.150000e-01  9.954032155871355e-01 
8.200000e-01  9.952167791210897e-01 
8.250000e-01  9.952468907821418e-01 
8.300000e-01  9.952403082654915e-01 
8.350000e-01  9.952531332472572e-01 
8.400000e-01  9.951744401161692e-01 
8.450000e-01  9.956457553713182e-01 
8.500000e-01  9.873280234907506e-01 
8.550000e-01  9.392391809633015e-01 
8.600000e-01  8.481133115465388e-01 
8.650000e-01  7.221204126346485e-01 
8.700000e-01  5.737101563034578e-01 
8.750000e-01  4.178394883096577e-01 
8.800000e-01  2.702874408208239e-01 
8.850000e-01  1.459161288324095e-01 
8.900000e-01  5.699068196005293e-02 
8.950000e-01  1.136494303315868e-02 
9.000000e-01  4.354733852352423e-03 
9.050000e-01  4.825297545287394e-03 
9.100000e-01  4.747353324437567e-03 
9.150000e-01  4.756540133232758e-03 
9.200000e-01  4.773564599375349e-03 
9.250000e-01  4.654755558388017e-03 
9.300000e-01  5.507422788359207e-03 
9.350000e-01  3.026226028710653e-02 
9.400000e-01  9.916559524291228e-02 
9.450000e-01  2.079042803430490e-01 
9.500000e-01  3.460299506923163e-01 
9.550000e-01  4.997248171754576e-01 
9.600000e-01  6.534474446637386e-01 
9.650000e-01  7.916533433815304e-01 
9.700000e-01  9.005157755140335e-01 
9.750000e-01  9.695715307319969e-01 
9.800000e-01  9.944728795205013e-01 
9.850000e-01  9.953476379348992e-01 
9.900000e-01  9.952257689756087e-01 
9.950000e-01  9.952451923115176e-01 
1.000000e+00  9.952417069563969e-01 
