TITLE ="t=203.288398" 
VARIABLES = "x"                 "phi" 
ZONE I=201, ZONETYPE=Ordered, DATAPACKING=POINT
0.000000e+00  9.959291224507258e-01 
5.000000e-03  9.919983882149160e-01 
1.000000e-02  9.553443309961716e-01 
1.500000e-02  8.746732575672822e-01 
2.000000e-02  7.565670981549648e-01 
2.500000e-02  6.125738717254554e-01 
3.000000e-02  4.571626201374811e-01 
3.500000e-02  3.060624457843579e-01 
4.000000e-02  1.745275928899961e-01 
4.500000e-02  7.563486415822426e-02 
5.000000e-02  1.860111018434973e-02 
5.500000e-02  3.777485059236093e-03 
6.000000e-02  1.640320813712309e-02 
6.500000e-02  7.045183885219905e-02 
7.000000e-02  1.667847296459428e-01 
7.500000e-02  2.965203910816239e-01 
8.000000e-02  4.467852027041321e-01 
8.500000e-02  6.024173299781718e-01 
9.000000e-02  7.476636846502699e-01 
9.500000e-02  8.679167559562224e-01 
1.000000e-01  9.513816141379872e-01 
1.050000e-01  9.910239321975955e-01 
1.100000e-01  9.961134706057744e-01 
1.150000e-01  9.900527206187208e-01 
1.200000e-01  9.477574578303919e-01 
1.250000e-01  8.618528315092996e-01 
1.300000e-01  7.397487558287117e-01 
1.350000e-01  5.934523330176279e-01 
1.400000e-01  4.376872987656472e-01 
1.450000e-01  2.882214158618185e-01 
1.500000e-01  1.601285101588254e-01 
1.550000e-01  6.609685724264806e-02 
1.600000e-01  1.470122848801309e-02 
1.650000e-01  4.382311409511029e-03 
1.700000e-01  4.830621439707567e-03 
1.750000e-01  4.683161611137862e-03 
1.800000e-01  5.208067425708045e-03 
1.850000e-01  2.750728287106993e-02 
1.900000e-01  9.381387238758888e-02 
1.950000e-01  2.004338927042311e-01 
2.000000e-01  3.371751180054918e-01 
2.050000e-01  4.903744908148037e-01 
2.100000e-01  6.445452112018228e-01 
2.150000e-01  7.840935691313564e-01 
2.200000e-01  8.950432868411533e-01 
2.250000e-01  9.666822739590896e-01 
2.300000e-01  9.941028500906889e-01 
2.350000e-01  9.953894685268483e-01 
2.400000e-01  9.952174934725159e-01 
2.450000e-01  9.952554506142069e-01 
2.500000e-01  9.951810942605266e-01 
2.550000e-01  9.956048500710111e-01 
2.600000e-01  9.848553595771196e-01 
2.650000e-01  9.327950263509306e-01 
2.700000e-01  8.381804910990712e-01 
2.750000e-01  7.096657789689939e-01 
2.800000e-01  5.599868605438189e-01 
2.850000e-01  4.042409920680602e-01 
2.900000e-01  2.581936997311343e-01 
2.950000e-01  1.365409243625723e-01 
3.000000e-01  5.123750963389943e-02 
3.050000e-01  9.595958504152121e-03 
3.100000e-01  4.385114233003430e-03 
3.150000e-01  4.819450823717489e-03 
3.200000e-01  4.749351676798991e-03 
3.250000e-01  4.748554083808256e-03 
3.300000e-01  4.824605741227271e-03 
3.350000e-01  4.358200220904961e-03 
3.400000e-01  1.315282306632505e-02 
3.450000e-01  6.207467203785811e-02 
3.500000e-01  1.539382967357830e-01 
3.550000e-01  2.804696313675650e-01 
3.600000e-01  4.291577937063452e-01 
3.650000e-01  5.850151046975663e-01 
3.700000e-01  7.322639640809564e-01 
3.750000e-01  8.560757292847672e-01 
3.800000e-01  9.442490094084207e-01 
3.850000e-01  9.890400835924494e-01 
3.900000e-01  9.956416128110511e-01 
3.950000e-01  9.951754496328056e-01 
4.000000e-01  9.952531067018802e-01 
4.050000e-01  9.952411307395393e-01 
4.100000e-01  9.952430326745796e-01 
4.150000e-01  9.952427630163000e-01 
4.200000e-01  9.952428381304285e-01 
4.250000e-01  9.952428233069051e-01 
4.300000e-01  9.952430535019351e-01 
4.350000e-01  9.952417666158949e-01 
4.400000e-01  9.952501740737891e-01 
4.450000e-01  9.951961420388341e-01 
4.500000e-01  9.955269163327765e-01 
4.550000e-01  9.924199471506434e-01 
4.600000e-01  9.569385753389749e-01 
4.650000e-01  8.773979472809883e-01 
4.700000e-01  7.601823532416067e-01 
4.750000e-01  6.167366969468900e-01 
4.800000e-01  4.614695077272099e-01 
4.850000e-01  3.100943624405393e-01 
4.900000e-01  1.778963277624564e-01 
4.950000e-01  7.802796080143903e-02 
5.000000e-01  1.983768192058833e-02 
5.050000e-01  4.595282424788616e-03 
5.100000e-01  4.784094937432445e-03 
5.150000e-01  4.753797321482010e-03 
5.200000e-01  4.758463969915734e-03 
5.250000e-01  4.757689215161127e-03 
5.300000e-01  4.757764487464270e-03 
5.350000e-01  4.757708296036241e-03 
5.400000e-01  4.757664487810636e-03 
5.450000e-01  4.757670923063858e-03 
5.500000e-01  4.757335449841813e-03 
5.550000e-01  4.759192746014170e-03 
5.600000e-01  4.747029524758099e-03 
5.650000e-01  4.825436246894971e-03 
5.700000e-01  4.354608636658049e-03 
5.750000e-01  1.138523606378554e-02 
5.800000e-01  5.705163902774930e-02 
5.850000e-01  1.460135879015949e-01 
5.900000e-01  2.704119475664173e-01 
5.950000e-01  4.179785211494816e-01 
6.000000e-01  5.738495979649169e-01 
6.050000e-01  7.222461088564863e-01 
6.100000e-01  8.482126342451515e-01 
6.150000e-01  9.393025088433574e-01 
6.200000e-01  9.873508485460570e-01 
6.250000e-01  9.956458716403359e-01 
6.300000e-01  9.951744162061370e-01 
6.350000e-01  9.952529638222186e-01 
6.400000e-01  9.952411408582478e-01 
6.450000e-01  9.952411890815046e-01 
6.500000e-01  9.952529189249232e-01 
6.550000e-01  9.951753546983475e-01 
6.600000e-01  9.956415903548842e-01 
6.650000e-01  9.890373382773722e-01 
6.700000e-01  9.442408210222988e-01 
6.750000e-01  8.560627691785254e-01 
6.800000e-01  7.322475555388548e-01 
6.850000e-01  5.849969344982369e-01 
6.900000e-01  4.291397216856174e-01 
6.950000e-01  2.804534866668064e-01 
7.000000e-01  1.539256730938411e-01 
7.050000e-01  6.206673145125145e-02 
7.100000e-01  1.315001399050728e-02 
7.150000e-01  4.358179507881694e-03 
7.200000e-01  4.824950405987303e-03 
7.250000e-01  4.747209139764626e-03 
7.300000e-01  4.759223206417761e-03 
7.350000e-01  4.757267383727867e-03 
7.400000e-01  4.757976368728515e-03 
7.450000e-01  4.755197014590663e-03 
7.500000e-01  4.772673112640034e-03 
7.550000e-01  4.662409911639233e-03 
7.600000e-01  5.444585840431534e-03 
7.650000e-01  2.972121784103905e-02 
7.700000e-01  9.812504511101748e-02 
7.750000e-01  2.064576397404105e-01 
7.800000e-01  3.443194744526709e-01 
7.850000e-01  4.979222214080445e-01 
7.900000e-01  6.517346000154273e-01 
7.950000e-01  7.902022595288511e-01 
8.000000e-01  8.994692851886917e-01 
8.050000e-01  9.690240158928306e-01 
8.100000e-01  9.944068022476361e-01 
8.150000e-01  9.953554038689691e-01 
8.200000e-01  9.952243949699737e-01 
8.250000e-01  9.952454163740950e-01 
8.300000e-01  9.952404812956118e-01 
8.350000e-01  9.952514495328044e-01 
8.400000e-01  9.951833987269246e-01 
8.450000e-01  9.955944570870910e-01 
8.500000e-01  9.844880298769723e-01 
8.550000e-01  9.318936532353991e-01 
8.600000e-01  8.368153634533341e-01 
8.650000e-01  7.079700357502178e-01 
8.700000e-01  5.581311028887533e-01 
8.750000e-01  4.024135262854162e-01 
8.800000e-01  2.565797693203344e-01 
8.850000e-01  1.353022011021616e-01 
8.900000e-01  5.049274975214467e-02 
8.950000e-01  9.387885564796630e-03 
9.000000e-01  4.391202316207117e-03 
9.050000e-01  4.818422384029539e-03 
9.100000e-01  4.748260883708366e-03 
9.150000e-01  4.755572277390174e-03 
9.200000e-01  4.777489915150278e-03 
9.250000e-01  4.629735366589584e-03 
9.300000e-01  5.722103261514084e-03 
9.350000e-01  3.200374866611464e-02 
9.400000e-01  1.024835588682957e-01 
9.450000e-01  2.124991370240996e-01 
9.500000e-01  3.514493654430375e-01 
9.550000e-01  5.054245147700107e-01 
9.600000e-01  6.588523187416133e-01 
9.650000e-01  7.962207557874718e-01 
9.700000e-01  9.037965969863087e-01 
9.750000e-01  9.712716079068033e-01 
9.800000e-01  9.946662096298086e-01 
9.850000e-01  9.953236968416848e-01 
9.900000e-01  9.952295206534840e-01 
9.950000e-01  9.952444733734932e-01 
1.000000e+00  9.952417887787418e-01 
