TITLE ="t=303.288398" 
VARIABLES = "x"                 "phi" 
ZONE I=201, ZONETYPE=Ordered, DATAPACKING=POINT
0.000000e+00  9.960440075026725e-01 
5.000000e-03  9.911631135269189e-01 
1.000000e-02  9.518761362664490e-01 
1.500000e-02  8.687396257654273e-01 
2.000000e-02  7.487351676021758e-01 
2.500000e-02  6.036292206725921e-01 
3.000000e-02  4.480138474366469e-01 
3.500000e-02  2.976403820124649e-01 
4.000000e-02  1.676827313211985e-01 
4.500000e-02  7.103966114780401e-02 
5.000000e-02  1.663349155126609e-02 
5.500000e-02  3.664243530817650e-03 
6.000000e-02  1.581184821653962e-02 
6.500000e-02  6.902729014868504e-02 
7.000000e-02  1.646416031978510e-01 
7.500000e-02  2.938693071968630e-01 
8.000000e-02  4.438942107137939e-01 
8.500000e-02  5.995809857550616e-01 
9.000000e-02  7.451705828998418e-01 
9.500000e-02  8.660175597618693e-01 
1.000000e-01  9.502589251470639e-01 
1.050000e-01  9.907398548588520e-01 
1.100000e-01  9.960936773966415e-01 
1.150000e-01  9.907676096066463e-01 
1.200000e-01  9.503693986949737e-01 
1.250000e-01  8.662102063339842e-01 
1.300000e-01  7.454330192364569e-01 
1.350000e-01  5.998931928313712e-01 
1.400000e-01  4.442309391985578e-01 
1.450000e-01  2.942028971945015e-01 
1.500000e-01  1.649451211805655e-01 
1.550000e-01  6.927793991609554e-02 
1.600000e-01  1.599792624255648e-02 
1.650000e-01  4.418415695760169e-03 
1.700000e-01  4.825138545240029e-03 
1.750000e-01  4.678533735838216e-03 
1.800000e-01  5.250701335055325e-03 
1.850000e-01  2.792459174731834e-02 
1.900000e-01  9.463279582878624e-02 
1.950000e-01  2.015816633404509e-01 
2.000000e-01  3.385390123942528e-01 
2.050000e-01  4.918176197776356e-01 
2.100000e-01  6.459219505579001e-01 
2.150000e-01  7.852655840707883e-01 
2.200000e-01  8.958950241532851e-01 
2.250000e-01  9.671361802189791e-01 
2.300000e-01  9.941645394928824e-01 
2.350000e-01  9.953829147187282e-01 
2.400000e-01  9.952184839284843e-01 
2.450000e-01  9.952561320481539e-01 
2.500000e-01  9.951760063128167e-01 
2.550000e-01  9.956337507547319e-01 
2.600000e-01  9.862190727573382e-01 
2.650000e-01  9.362579680296788e-01 
2.700000e-01  8.434785906641067e-01 
2.750000e-01  7.162828422610438e-01 
2.800000e-01  5.672570515971227e-01 
2.850000e-01  4.114262179039443e-01 
2.900000e-01  2.645650623252325e-01 
2.950000e-01  1.414593919365866e-01 
3.000000e-01  5.423003424969585e-02 
3.050000e-01  1.048078748991522e-02 
3.100000e-01  4.365267853550635e-03 
3.150000e-01  4.823125075678891e-03 
3.200000e-01  4.748865165927013e-03 
3.250000e-01  4.748592616829886e-03 
3.300000e-01  4.825091953580284e-03 
3.350000e-01  4.355468408281807e-03 
3.400000e-01  1.284553960463026e-02 
3.450000e-01  6.123905736822856e-02 
3.500000e-01  1.526351531159934e-01 
3.550000e-01  2.788256029669508e-01 
3.600000e-01  4.273382713994257e-01 
3.650000e-01  5.832048853068366e-01 
3.700000e-01  7.306468421048472e-01 
3.750000e-01  8.548141749643127e-01 
3.800000e-01  9.434649725168663e-01 
3.850000e-01  9.887854489673200e-01 
3.900000e-01  9.956441505150619e-01 
3.950000e-01  9.951749501674152e-01 
4.000000e-01  9.952531482941557e-01 
4.050000e-01  9.952410926996506e-01 
4.100000e-01  9.952430100951388e-01 
4.150000e-01  9.952427409733889e-01 
4.200000e-01  9.952428192888133e-01 
4.250000e-01  9.952428050870721e-01 
4.300000e-01  9.952430501584194e-01 
4.350000e-01  9.952416872139507e-01 
4.400000e-01  9.952505995735491e-01 
4.450000e-01  9.951933058275860e-01 
4.500000e-01  9.955431322162934e-01 
4.550000e-01  9.921437047623112e-01 
4.600000e-01  9.556624468630472e-01 
4.650000e-01  8.751721364819708e-01 
4.700000e-01  7.572168152677801e-01 
4.750000e-01  6.133267956105000e-01 
4.800000e-01  4.579597360319227e-01 
4.850000e-01  3.068400711578575e-01 
4.900000e-01  1.752245715400066e-01 
4.950000e-01  7.620004353939988e-02 
5.000000e-01  1.900587187270687e-02 
5.050000e-01  4.549525407458181e-03 
5.100000e-01  4.791761254197616e-03 
5.150000e-01  4.752623887825012e-03 
5.200000e-01  4.758663388855925e-03 
5.250000e-01  4.757679193492423e-03 
5.300000e-01  4.757792425634730e-03 
5.350000e-01  4.757735572654144e-03 
5.400000e-01  4.757697090057795e-03 
5.450000e-01  4.757708199248375e-03 
5.500000e-01  4.757375681284888e-03 
5.550000e-01  4.759247896427682e-03 
5.600000e-01  4.747022804992497e-03 
5.650000e-01  4.825870054708815e-03 
5.700000e-01  4.352583590566424e-03 
5.750000e-01  1.185856457820655e-02 
5.800000e-01  5.845245858532616e-02 
5.850000e-01  1.482461862893232e-01 
5.900000e-01  2.732601209036352e-01 
5.950000e-01  4.211559763341617e-01 
6.000000e-01  5.770336662344638e-01 
6.050000e-01  7.251134074903909e-01 
6.100000e-01  8.504747895514527e-01 
6.150000e-01  9.407399723807957e-01 
6.200000e-01  9.878615674439644e-01 
6.250000e-01  9.956475858233211e-01 
6.300000e-01  9.951741577642074e-01 
6.350000e-01  9.952530444435272e-01 
6.400000e-01  9.952411585992769e-01 
6.450000e-01  9.952411936846770e-01 
6.500000e-01  9.952529800579187e-01 
6.550000e-01  9.951749560126545e-01 
6.600000e-01  9.956437153907717e-01 
6.650000e-01  9.888298072467753e-01 
6.700000e-01  9.436007201934667e-01 
6.750000e-01  8.550323757185962e-01 
6.800000e-01  7.309264522724082e-01 
6.850000e-01  5.835178401628449e-01 
6.900000e-01  4.276528061648116e-01 
6.950000e-01  2.791097663010946e-01 
7.000000e-01  1.528603337575682e-01 
7.050000e-01  6.138332368198698e-02 
7.100000e-01  1.289833668887783e-02 
7.150000e-01  4.355872612639480e-03 
7.200000e-01  4.825349790195812e-03 
7.250000e-01  4.747136234153398e-03 
7.300000e-01  4.759229856058201e-03 
7.350000e-01  4.757276558602602e-03 
7.400000e-01  4.757950724561000e-03 
7.450000e-01  4.755458582925388e-03 
7.500000e-01  4.771139375376368e-03 
7.550000e-01  4.672101139933801e-03 
7.600000e-01  5.366887953812191e-03 
7.650000e-01  2.903052980243738e-02 
7.700000e-01  9.678991604057077e-02 
7.750000e-01  2.045976652331653e-01 
7.800000e-01  3.421175237043285e-01 
7.850000e-01  4.955993534339294e-01 
7.900000e-01  6.495251918279091e-01 
7.950000e-01  7.883282100803858e-01 
8.000000e-01  8.981151084171390e-01 
8.050000e-01  9.683120922279761e-01 
8.100000e-01  9.943181550927426e-01 
8.150000e-01  9.953656469092531e-01 
8.200000e-01  9.952227796568063e-01 
8.250000e-01  9.952457442203465e-01 
8.300000e-01  9.952404006324094e-01 
8.350000e-01  9.952521397144001e-01 
8.400000e-01  9.951793807661045e-01 
8.450000e-01  9.956172625496592e-01 
8.500000e-01  9.853668262750471e-01 
8.550000e-01  9.340712903608289e-01 
8.600000e-01  8.401231185358321e-01 
8.650000e-01  7.120853827708303e-01 
8.700000e-01  5.626399555354747e-01 
8.750000e-01  4.068582532857341e-01 
8.800000e-01  2.605096821222140e-01 
8.850000e-01  1.383234541566450e-01 
8.900000e-01  5.231541517711411e-02 
8.950000e-01  9.905630309327278e-03 
9.000000e-01  4.376963982742663e-03 
9.050000e-01  4.821058750762084e-03 
9.100000e-01  4.747888540385936e-03 
9.150000e-01  4.755891146465511e-03 
9.200000e-01  4.776178511822279e-03 
9.250000e-01  4.638003634101991e-03 
9.300000e-01  5.649408251429715e-03 
9.350000e-01  3.143113714815308e-02 
9.400000e-01  1.013976700702695e-01 
9.450000e-01  2.109982732323804e-01 
9.500000e-01  3.496813463748105e-01 
9.550000e-01  5.035669311872003e-01 
9.600000e-01  6.570926074220759e-01 
9.650000e-01  7.947355692320726e-01 
9.700000e-01  9.027319172975188e-01 
9.750000e-01  9.707226269439414e-01 
9.800000e-01  9.946056867108882e-01 
9.850000e-01  9.953313616604598e-01 
9.900000e-01  9.952283238479513e-01 
9.950000e-01  9.952447034726124e-01 
1.000000e+00  9.952417632009211e-01 
