TITLE ="t=0.195442" 
VARIABLES = "x"                 "phi" 
ZONE I=201, ZONETYPE=Ordered, DATAPACKING=POINT
0.000000e+00  6.786975292450790e-01 
5.000000e-03  6.729015601210782e-01 
1.000000e-02  6.559303676377212e-01 
1.500000e-02  6.290082164463867e-01 
2.000000e-02  5.940885201853430e-01 
2.500000e-02  5.537225958325960e-01 
3.000000e-02  5.108796716510891e-01 
3.500000e-02  4.687292753635656e-01 
4.000000e-02  4.304037290679302e-01 
4.500000e-02  3.987621225684072e-01 
5.000000e-02  3.761767044860650e-01 
5.500000e-02  3.643584733677507e-01 
6.000000e-02  3.642325522993520e-01 
6.500000e-02  3.758682248004333e-01 
7.000000e-02  3.984653823624699e-01 
7.500000e-02  4.303984898653641e-01 
8.000000e-02  4.693185225141219e-01 
8.500000e-02  5.123100936658186e-01 
9.000000e-02  5.560949691250402e-01 
9.500000e-02  5.972664654199691e-01 
1.000000e-01  6.325345394210706e-01 
1.050000e-01  6.589605080115061e-01 
1.100000e-01  6.741636565677942e-01 
1.150000e-01  6.764882173075013e-01 
1.200000e-01  6.651253925351928e-01 
1.250000e-01  6.401877481227231e-01 
1.300000e-01  6.027312297390418e-01 
1.350000e-01  5.547167669132003e-01 
1.400000e-01  4.989044843004478e-01 
1.450000e-01  4.386810282656515e-01 
1.500000e-01  3.778317148363831e-01 
1.550000e-01  3.202796438184970e-01 
1.600000e-01  2.698200771230848e-01 
1.650000e-01  2.298783188679995e-01 
1.700000e-01  2.033124794501811e-01 
1.750000e-01  1.922692259503883e-01 
1.800000e-01  1.980829534387427e-01 
1.850000e-01  2.211957202054744e-01 
1.900000e-01  2.610843198968076e-01 
1.950000e-01  3.162122583739435e-01 
2.000000e-01  3.840454885781174e-01 
2.050000e-01  4.611617696047646e-01 
2.100000e-01  5.434587731581345e-01 
2.150000e-01  6.264422068295281e-01 
2.200000e-01  7.055580397854334e-01 
2.250000e-01  7.765238266302544e-01 
2.300000e-01  8.356138261243661e-01 
2.350000e-01  8.798607192952872e-01 
2.400000e-01  9.071493756346215e-01 
2.450000e-01  9.161896536168482e-01 
2.500000e-01  9.063960392728388e-01 
2.550000e-01  8.778265884823548e-01 
2.600000e-01  8.313091291752361e-01 
2.650000e-01  7.686137752929539e-01 
2.700000e-01  6.925124137841822e-01 
2.750000e-01  6.066950541451493e-01 
2.800000e-01  5.155572368179139e-01 
2.850000e-01  4.238870237479698e-01 
2.900000e-01  3.364946853319774e-01 
2.950000e-01  2.578378704538003e-01 
3.000000e-01  1.916960781907437e-01 
3.050000e-01  1.409402806926603e-01 
3.100000e-01  1.074286528566232e-01 
3.150000e-01  9.204150048571384e-02 
3.200000e-01  9.483593693022616e-02 
3.250000e-01  1.152129183086161e-01 
3.300000e-01  1.519488435671744e-01 
3.350000e-01  2.031243255123317e-01 
3.400000e-01  2.660906609651159e-01 
3.450000e-01  3.375320842471881e-01 
3.500000e-01  4.136231698699693e-01 
3.550000e-01  4.902640413361468e-01 
3.600000e-01  5.633643829485445e-01 
3.650000e-01  6.291386948254158e-01 
3.700000e-01  6.843734964137459e-01 
3.750000e-01  7.266331050266047e-01 
3.800000e-01  7.543833596331416e-01 
3.850000e-01  7.670301781799143e-01 
3.900000e-01  7.648877212038867e-01 
3.950000e-01  7.491011847767464e-01 
4.000000e-01  7.215446749727792e-01 
4.050000e-01  6.846995642324102e-01 
4.100000e-01  6.415078047063887e-01 
4.150000e-01  5.951955898765259e-01 
4.200000e-01  5.490710351997284e-01 
4.250000e-01  5.063082806729073e-01 
4.300000e-01  4.697359098562811e-01 
4.350000e-01  4.416487336904787e-01 
4.400000e-01  4.236591609414054e-01 
4.450000e-01  4.165989588798341e-01 
4.500000e-01  4.204762195352533e-01 
4.550000e-01  4.344876578489147e-01 
4.600000e-01  4.570836742797016e-01 
4.650000e-01  4.860820347515124e-01 
4.700000e-01  5.188240121490669e-01 
4.750000e-01  5.523636808571339e-01 
4.800000e-01  5.836774486836811e-01 
4.850000e-01  6.098782966520940e-01 
4.900000e-01  6.284187823716150e-01 
4.950000e-01  6.372689373685715e-01 
5.000000e-01  6.350588857911040e-01 
5.050000e-01  6.211795634944129e-01 
5.100000e-01  5.958366760678894e-01 
5.150000e-01  5.600529959968142e-01 
5.200000e-01  5.156143705561950e-01 
5.250000e-01  4.649578847170436e-01 
5.300000e-01  4.110070863446913e-01 
5.350000e-01  3.569673365489050e-01 
5.400000e-01  3.061015331093627e-01 
5.450000e-01  2.615103216221900e-01 
5.500000e-01  2.259399437261956e-01 
5.550000e-01  2.016344640579850e-01 
5.600000e-01  1.902376021594027e-01 
5.650000e-01  1.927348952413228e-01 
5.700000e-01  2.094162824033216e-01 
5.750000e-01  2.398439629053112e-01 
5.800000e-01  2.828319274397852e-01 
5.850000e-01  3.364623188524090e-01 
5.900000e-01  3.981630486537080e-01 
5.950000e-01  4.648558519081663e-01 
6.000000e-01  5.331660745022995e-01 
6.050000e-01  5.996711988483842e-01 
6.100000e-01  6.611564508995059e-01 
6.150000e-01  7.148434569691218e-01 
6.200000e-01  7.585619636210642e-01 
6.250000e-01  7.908447383289372e-01 
6.300000e-01  8.109408272400478e-01 
6.350000e-01  8.187599165252366e-01 
6.400000e-01  8.147755702907041e-01 
6.450000e-01  7.999193185357845e-01 
6.500000e-01  7.754856984557681e-01 
6.550000e-01  7.430488798035157e-01 
6.600000e-01  7.043802154316052e-01 
6.650000e-01  6.613574615605377e-01 
6.700000e-01  6.158638204803863e-01 
6.750000e-01  5.696821532135513e-01 
6.800000e-01  5.243943706896957e-01 
6.850000e-01  4.812977254743273e-01 
6.900000e-01  4.413487038240283e-01 
6.950000e-01  4.051420106447206e-01 
7.000000e-01  3.729275459506745e-01 
7.050000e-01  3.446632177326179e-01 
7.100000e-01  3.200968234061122e-01 
7.150000e-01  2.988667680744522e-01 
7.200000e-01  2.806094640519781e-01 
7.250000e-01  2.650609188428754e-01 
7.300000e-01  2.521410426219554e-01 
7.350000e-01  2.420112210135867e-01 
7.400000e-01  2.350983093968766e-01 
7.450000e-01  2.320810772079203e-01 
7.500000e-01  2.338380650229998e-01 
7.550000e-01  2.413588312214487e-01 
7.600000e-01  2.556239353660465e-01 
7.650000e-01  2.774630943424316e-01 
7.700000e-01  3.074056912027132e-01 
7.750000e-01  3.455421913226814e-01 
7.800000e-01  3.914171814667851e-01 
7.850000e-01  4.439730261935317e-01 
7.900000e-01  5.015570874128346e-01 
7.950000e-01  5.619961158702491e-01 
8.000000e-01  6.227308058099680e-01 
8.050000e-01  6.809938254062167e-01 
8.100000e-01  7.340077699107146e-01 
8.150000e-01  7.791767461968736e-01 
8.200000e-01  8.142474759404444e-01 
8.250000e-01  8.374233586623904e-01 
8.300000e-01  8.474283815276251e-01 
8.350000e-01  8.435367847636877e-01 
8.400000e-01  8.256005620945891e-01 
8.450000e-01  7.940986981793967e-01 
8.500000e-01  7.501955530210370e-01 
8.550000e-01  6.957677910700724e-01 
8.600000e-01  6.333635321253690e-01 
8.650000e-01  5.660788757620111e-01 
8.700000e-01  4.973586959682717e-01 
8.750000e-01  4.307452732144951e-01 
8.800000e-01  3.696085279962211e-01 
8.850000e-01  3.168947154014885e-01 
8.900000e-01  2.749264251180389e-01 
8.950000e-01  2.452762075695625e-01 
9.000000e-01  2.287206872174976e-01 
9.050000e-01  2.252651170943667e-01 
9.100000e-01  2.342162086036037e-01 
9.150000e-01  2.542804645438597e-01 
9.200000e-01  2.836760042084681e-01 
9.250000e-01  3.202578283656611e-01 
9.300000e-01  3.616599116267607e-01 
9.350000e-01  4.054526217467068e-01 
9.400000e-01  4.493065380378777e-01 
9.450000e-01  4.911481985757535e-01 
9.500000e-01  5.292913600802492e-01 
9.550000e-01  5.625291189121334e-01 
9.600000e-01  5.901769938569631e-01 
9.650000e-01  6.120635738614300e-01 
9.700000e-01  6.284721072392097e-01 
9.750000e-01  6.400421009190738e-01 
9.800000e-01  6.476437624205861e-01 
9.850000e-01  6.522397878872355e-01 
9.900000e-01  6.547489399258881e-01 
9.950000e-01  6.559246007385812e-01 
1.000000e+00  6.562594298716089e-01 
