TITLE ="t=0.004096" 
VARIABLES = "x"                 "phi" 
ZONE I=201, ZONETYPE=Ordered, DATAPACKING=POINT
0.000000e+00  5.189574218706706e-01 
5.000000e-03  5.187090790630056e-01 
1.000000e-02  5.179416566292688e-01 
1.500000e-02  5.166008155921218e-01 
2.000000e-02  5.146345789729878e-01 
2.500000e-02  5.120379531987292e-01 
3.000000e-02  5.088934750374949e-01 
3.500000e-02  5.053941670342917e-01 
4.000000e-02  5.018396163900293e-01 
4.500000e-02  4.986024786011274e-01 
5.000000e-02  4.960704769101074e-01 
5.500000e-02  4.945761148663589e-01 
6.000000e-02  4.943305178664997e-01 
6.500000e-02  4.953773247548227e-01 
7.000000e-02  4.975773750585903e-01 
7.500000e-02  5.006269973088363e-01 
8.000000e-02  5.041047945257533e-01 
8.500000e-02  5.075362700099404e-01 
9.000000e-02  5.104634718126354e-01 
9.500000e-02  5.125077363615173e-01 
1.000000e-01  5.134164515189796e-01 
1.050000e-01  5.130884017385239e-01 
1.100000e-01  5.115760579937936e-01 
1.150000e-01  5.090668129202531e-01 
1.200000e-01  5.058482214601289e-01 
1.250000e-01  5.022642669103378e-01 
1.300000e-01  4.986702272155529e-01 
1.350000e-01  4.953928678035329e-01 
1.400000e-01  4.927005926066369e-01 
1.450000e-01  4.907852608884054e-01 
1.500000e-01  4.897545743869943e-01 
1.550000e-01  4.896324805247303e-01 
1.600000e-01  4.903654631149703e-01 
1.650000e-01  4.918340277308154e-01 
1.700000e-01  4.938693679517924e-01 
1.750000e-01  4.962740658482920e-01 
1.800000e-01  4.988435937567083e-01 
1.850000e-01  5.013845078479849e-01 
1.900000e-01  5.037269176061975e-01 
1.950000e-01  5.057320798055871e-01 
2.000000e-01  5.072981706197760e-01 
2.050000e-01  5.083666146095542e-01 
2.100000e-01  5.089285112805186e-01 
2.150000e-01  5.090282137552971e-01 
2.200000e-01  5.087608714255460e-01 
2.250000e-01  5.082624294065543e-01 
2.300000e-01  5.076924420654007e-01 
2.350000e-01  5.072110281326134e-01 
2.400000e-01  5.069519407209088e-01 
2.450000e-01  5.069951740283424e-01 
2.500000e-01  5.073446714435758e-01 
2.550000e-01  5.079177883499161e-01 
2.600000e-01  5.085513736969735e-01 
2.650000e-01  5.090247749969354e-01 
2.700000e-01  5.090950955806165e-01 
2.750000e-01  5.085373750693766e-01 
2.800000e-01  5.071828764808973e-01 
2.850000e-01  5.049508542378039e-01 
2.900000e-01  5.018708428704699e-01 
2.950000e-01  4.980927391261737e-01 
3.000000e-01  4.938817117210621e-01 
3.050000e-01  4.895959293633863e-01 
3.100000e-01  4.856479196025535e-01 
3.150000e-01  4.824540514496055e-01 
3.200000e-01  4.803794117287618e-01 
3.250000e-01  4.796862582649178e-01 
3.300000e-01  4.804936820496372e-01 
3.350000e-01  4.827549230757890e-01 
3.400000e-01  4.862570636484488e-01 
3.450000e-01  4.906450330697160e-01 
3.500000e-01  4.954678909535530e-01 
3.550000e-01  5.002410335279309e-01 
3.600000e-01  5.045144045067719e-01 
3.650000e-01  5.079347770461417e-01 
3.700000e-01  5.102903965457354e-01 
3.750000e-01  5.115294956517252e-01 
3.800000e-01  5.117502841596260e-01 
3.850000e-01  5.111669181267922e-01 
3.900000e-01  5.100605873658667e-01 
3.950000e-01  5.087257354628218e-01 
4.000000e-01  5.074199683674883e-01 
4.050000e-01  5.063249373287436e-01 
4.100000e-01  5.055249611377228e-01 
4.150000e-01  5.050083279102870e-01 
4.200000e-01  5.046911067727061e-01 
4.250000e-01  5.044560569760701e-01 
4.300000e-01  5.041939723640314e-01 
4.350000e-01  5.038350980993269e-01 
4.400000e-01  5.033637486677441e-01 
4.450000e-01  5.028160407078560e-01 
4.500000e-01  5.022649103853150e-01 
4.550000e-01  5.017975962331651e-01 
4.600000e-01  5.014904522157982e-01 
4.650000e-01  5.013860323091263e-01 
4.700000e-01  5.014775772071418e-01 
4.750000e-01  5.017048996496514e-01 
4.800000e-01  5.019626283444564e-01 
4.850000e-01  5.021180080671968e-01 
4.900000e-01  5.020330079028033e-01 
4.950000e-01  5.015856160010788e-01 
5.000000e-01  5.006873702493383e-01 
5.050000e-01  4.992965246617592e-01 
5.100000e-01  4.974271164030842e-01 
5.150000e-01  4.951534295637504e-01 
5.200000e-01  4.926082356478790e-01 
5.250000e-01  4.899731539666511e-01 
5.300000e-01  4.874608854231690e-01 
5.350000e-01  4.852911213919600e-01 
5.400000e-01  4.836634413886048e-01 
5.450000e-01  4.827309062946088e-01 
5.500000e-01  4.825777236256352e-01 
5.550000e-01  4.832041604521497e-01 
5.600000e-01  4.845220613841879e-01 
5.650000e-01  4.863640415089783e-01 
5.700000e-01  4.885074893661595e-01 
5.750000e-01  4.907107944821112e-01 
5.800000e-01  4.927550913149396e-01 
5.850000e-01  4.944822969360613e-01 
5.900000e-01  4.958206028712116e-01 
5.950000e-01  4.967917368126707e-01 
6.000000e-01  4.974989245083180e-01 
6.050000e-01  4.980988523868868e-01 
6.100000e-01  4.987638438739148e-01 
6.150000e-01  4.996416419594406e-01 
6.200000e-01  5.008200270219139e-01 
6.250000e-01  5.023024114592282e-01 
6.300000e-01  5.039987023016741e-01 
6.350000e-01  5.057332312911723e-01 
6.400000e-01  5.072687229377952e-01 
6.450000e-01  5.083425109384175e-01 
6.500000e-01  5.087089309031255e-01 
6.550000e-01  5.081805136903575e-01 
6.600000e-01  5.066608292845796e-01 
6.650000e-01  5.041637425606660e-01 
6.700000e-01  5.008167730562779e-01 
6.750000e-01  4.968489755442429e-01 
6.800000e-01  4.925654289585967e-01 
6.850000e-01  4.883112699415622e-01 
6.900000e-01  4.844291688008365e-01 
6.950000e-01  4.812156830105672e-01 
7.000000e-01  4.788833160745503e-01 
7.050000e-01  4.775350539305693e-01 
7.100000e-01  4.771560427855689e-01 
7.150000e-01  4.776235699718204e-01 
7.200000e-01  4.787328933408712e-01 
7.250000e-01  4.802336767482718e-01 
7.300000e-01  4.818701537150890e-01 
7.350000e-01  4.834177489312752e-01 
7.400000e-01  4.847099219626432e-01 
7.450000e-01  4.856515570121761e-01 
7.500000e-01  4.862188405001157e-01 
7.550000e-01  4.864490169969932e-01 
7.600000e-01  4.864252195267388e-01 
7.650000e-01  4.862610382802596e-01 
7.700000e-01  4.860873403041094e-01 
7.750000e-01  4.860416520128515e-01 
7.800000e-01  4.862592594138531e-01 
7.850000e-01  4.868649957770998e-01 
7.900000e-01  4.879648560150611e-01 
7.950000e-01  4.896368771464986e-01 
8.000000e-01  4.919213440124605e-01 
8.050000e-01  4.948112534407562e-01 
8.100000e-01  4.982445963609353e-01 
8.150000e-01  5.021000500054784e-01 
8.200000e-01  5.061973649129433e-01 
8.250000e-01  5.103035588501913e-01 
8.300000e-01  5.141460001236067e-01 
8.350000e-01  5.174330331284364e-01 
8.400000e-01  5.198815173262246e-01 
8.450000e-01  5.212487734179164e-01 
8.500000e-01  5.213648044836798e-01 
8.550000e-01  5.201599925650322e-01 
8.600000e-01  5.176837988511469e-01 
8.650000e-01  5.141109186890115e-01 
8.700000e-01  5.097326481818324e-01 
8.750000e-01  5.049330432956013e-01 
8.800000e-01  5.001518021390196e-01 
8.850000e-01  4.958381638804417e-01 
8.900000e-01  4.924017494690644e-01 
8.950000e-01  4.901667952657601e-01 
9.000000e-01  4.893358087084316e-01 
9.050000e-01  4.899676047569478e-01 
9.100000e-01  4.919730144206284e-01 
9.150000e-01  4.951291534466875e-01 
9.200000e-01  4.991100755337776e-01 
9.250000e-01  5.035285290766618e-01 
9.300000e-01  5.079814539485111e-01 
9.350000e-01  5.120917438426914e-01 
9.400000e-01  5.155408378609628e-01 
9.450000e-01  5.180900722765056e-01 
9.500000e-01  5.195919806197734e-01 
9.550000e-01  5.199945065741036e-01 
9.600000e-01  5.193407262731518e-01 
9.650000e-01  5.177646312521974e-01 
9.700000e-01  5.154813456565251e-01 
9.750000e-01  5.127695944761000e-01 
9.800000e-01  5.099459042428103e-01 
9.850000e-01  5.073327619159312e-01 
9.900000e-01  5.052249208631495e-01 
9.950000e-01  5.038583228391764e-01 
1.000000e+00  5.033852539379025e-01 
