TITLE ="t=23.288398" 
VARIABLES = "x"                 "phi" 
ZONE I=201, ZONETYPE=Ordered, DATAPACKING=POINT
0.000000e+00  9.959325288680386e-01 
5.000000e-03  9.919554070169091e-01 
1.000000e-02  9.551941249511590e-01 
1.500000e-02  8.744616285135961e-01 
2.000000e-02  7.563537408472837e-01 
2.500000e-02  6.124197007814315e-01 
3.000000e-02  4.571228078422485e-01 
3.500000e-02  3.061805441575901e-01 
4.000000e-02  1.748311753213744e-01 
4.500000e-02  7.613371343884363e-02 
5.000000e-02  1.929702193245992e-02 
5.500000e-02  5.740922336032015e-03 
6.000000e-02  2.987906851699897e-02 
6.500000e-02  9.820520974346661e-02 
7.000000e-02  2.064624345462850e-01 
7.500000e-02  3.442573750027957e-01 
8.000000e-02  4.978083082338849e-01 
8.500000e-02  6.515891735070719e-01 
9.000000e-02  7.900487186626031e-01 
9.500000e-02  8.993315459051090e-01 
1.000000e-01  9.689232908505214e-01 
1.050000e-01  9.943413551396990e-01 
1.100000e-01  9.955636648502465e-01 
1.150000e-01  9.797606593924629e-01 
1.200000e-01  9.209963069356657e-01 
1.250000e-01  8.206401932765703e-01 
1.300000e-01  6.881017738315979e-01 
1.350000e-01  5.365716948669301e-01 
1.400000e-01  3.813520268306857e-01 
1.450000e-01  2.381510801528817e-01 
1.500000e-01  1.213502102861510e-01 
1.550000e-01  4.234619417029470e-02 
1.600000e-01  7.431224832634571e-03 
1.650000e-01  4.478847561918668e-03 
1.700000e-01  4.822124497925308e-03 
1.750000e-01  4.624553526434664e-03 
1.800000e-01  5.702588762223266e-03 
1.850000e-01  3.183858624973395e-02 
1.900000e-01  1.021697245079371e-01 
1.950000e-01  2.120651940252799e-01 
2.000000e-01  3.509381222544350e-01 
2.050000e-01  5.048873609879188e-01 
2.100000e-01  6.583434776371361e-01 
2.150000e-01  7.957913274068028e-01 
2.200000e-01  9.034888169038627e-01 
2.250000e-01  9.711130369312838e-01 
2.300000e-01  9.946488144049755e-01 
2.350000e-01  9.953259501558664e-01 
2.400000e-01  9.952282072186199e-01 
2.450000e-01  9.952495247522142e-01 
2.500000e-01  9.952079414197312e-01 
2.550000e-01  9.954506852926572e-01 
2.600000e-01  9.809963030288088e-01 
2.650000e-01  9.238046654361421e-01 
2.700000e-01  8.247823036513391e-01 
2.750000e-01  6.931683393313126e-01 
2.800000e-01  5.420494085737657e-01 
2.850000e-01  3.866821960862150e-01 
2.900000e-01  2.427911415658174e-01 
2.950000e-01  1.248339964164837e-01 
3.000000e-01  4.434124081212072e-02 
3.050000e-01  7.857229460613112e-03 
3.100000e-01  4.456952195995713e-03 
3.150000e-01  4.806638683841528e-03 
3.200000e-01  4.751197006118735e-03 
3.250000e-01  4.748853124038985e-03 
3.300000e-01  4.820910965447418e-03 
3.350000e-01  4.379302456124359e-03 
3.400000e-01  1.447775482862186e-02 
3.450000e-01  6.553618651723564e-02 
3.500000e-01  1.592774097218193e-01 
3.550000e-01  2.871666735445101e-01 
3.600000e-01  4.365389150132342e-01 
3.650000e-01  5.923307920951423e-01 
3.700000e-01  7.387717778808480e-01 
3.750000e-01  8.611224359205584e-01 
3.800000e-01  9.473481056975154e-01 
3.850000e-01  9.899956943794056e-01 
3.900000e-01  9.956254078811351e-01 
3.950000e-01  9.951785227639762e-01 
4.000000e-01  9.952527593080793e-01 
4.050000e-01  9.952412933023350e-01 
4.100000e-01  9.952431023090990e-01 
4.150000e-01  9.952428341665174e-01 
4.200000e-01  9.952428954377546e-01 
4.250000e-01  9.952428731592848e-01 
4.300000e-01  9.952430693575445e-01 
4.350000e-01  9.952419162059647e-01 
4.400000e-01  9.952493858952979e-01 
4.450000e-01  9.952013555071613e-01 
4.500000e-01  9.954967680145745e-01 
4.550000e-01  9.928748319229178e-01 
4.600000e-01  9.591938407980395e-01 
4.650000e-01  8.813783558506126e-01 
4.700000e-01  7.655142927435671e-01 
4.750000e-01  6.228900066107277e-01 
4.800000e-01  4.678231517910368e-01 
4.850000e-01  3.160054957158218e-01 
4.900000e-01  1.827711093181755e-01 
4.950000e-01  8.138937638006274e-02 
5.000000e-01  2.140210122355881e-02 
5.050000e-01  4.692472956214074e-03 
5.100000e-01  4.768216829885205e-03 
5.150000e-01  4.756209833910329e-03 
5.200000e-01  4.758025391471929e-03 
5.250000e-01  4.757685286530968e-03 
5.300000e-01  4.757681713302465e-03 
5.350000e-01  4.757626808374006e-03 
5.400000e-01  4.757572095432578e-03 
5.450000e-01  4.757567462235772e-03 
5.500000e-01  4.757234200416321e-03 
5.550000e-01  4.759006647612439e-03 
5.600000e-01  4.747315418144855e-03 
5.650000e-01  4.822561496615081e-03 
5.700000e-01  4.369533279305278e-03 
5.750000e-01  1.024535478707251e-02 
5.800000e-01  5.345895599062265e-02 
5.850000e-01  1.402009786172289e-01 
5.900000e-01  2.629405582290014e-01 
5.950000e-01  4.095986529270478e-01 
6.000000e-01  5.654118782848527e-01 
6.050000e-01  7.146074186230553e-01 
6.100000e-01  8.421415007649421e-01 
6.150000e-01  9.353893925311446e-01 
6.200000e-01  9.858843196968343e-01 
6.250000e-01  9.956279037183069e-01 
6.300000e-01  9.951775497336032e-01 
6.350000e-01  9.952523943219530e-01 
6.400000e-01  9.952411648028094e-01 
6.450000e-01  9.952412158745920e-01 
6.500000e-01  9.952525985342190e-01 
6.550000e-01  9.951776279701734e-01 
6.600000e-01  9.956293952218526e-01 
6.650000e-01  9.898074474113201e-01 
6.700000e-01  9.467163918143083e-01 
6.750000e-01  8.600861029790626e-01 
6.800000e-01  7.374306428290773e-01 
6.850000e-01  5.908194418562247e-01 
6.900000e-01  4.350107005049577e-01 
6.950000e-01  2.857767425123006e-01 
7.000000e-01  1.581655818458661e-01 
7.050000e-01  6.481068418320712e-02 
7.100000e-01  1.419356437594951e-02 
7.150000e-01  4.373586009617877e-03 
7.200000e-01  4.822250903566254e-03 
7.250000e-01  4.747695640285112e-03 
7.300000e-01  4.759203598185176e-03 
7.350000e-01  4.757297271768517e-03 
7.400000e-01  4.758042344450109e-03 
7.450000e-01  4.754829940960813e-03 
7.500000e-01  4.774976551285646e-03 
7.550000e-01  4.648031127073745e-03 
7.600000e-01  5.563840546270525e-03 
7.650000e-01  3.073459460253408e-02 
7.700000e-01  1.000698632161920e-01 
7.750000e-01  2.091589813054837e-01 
7.800000e-01  3.475115823944261e-01 
7.850000e-01  5.012845807687633e-01 
7.900000e-01  6.549279598221849e-01 
7.950000e-01  7.929059708294185e-01 
8.000000e-01  9.014173293483890e-01 
8.050000e-01  9.700410288256153e-01 
8.100000e-01  9.945279603511704e-01 
8.150000e-01  9.953409021884622e-01 
8.200000e-01  9.952266723231080e-01 
8.250000e-01  9.952449295838395e-01 
8.300000e-01  9.952407395188895e-01 
8.350000e-01  9.952495424814555e-01 
8.400000e-01  9.951951359465553e-01 
8.450000e-01  9.955272757768758e-01 
8.500000e-01  9.826137162810538e-01 
8.550000e-01  9.274569757236576e-01 
8.600000e-01  8.301699933106655e-01 
8.650000e-01  6.997647595125948e-01 
8.700000e-01  5.491913127889118e-01 
8.750000e-01  3.936459338341992e-01 
8.800000e-01  2.488724208198610e-01 
8.850000e-01  1.294260551550483e-01 
8.900000e-01  4.700878267963884e-02 
8.950000e-01  8.480010961717906e-03 
9.000000e-01  4.425501631610311e-03 
9.050000e-01  4.812194407413855e-03 
9.100000e-01  4.749184352774863e-03 
9.150000e-01  4.754912492020326e-03 
9.200000e-01  4.780241298447678e-03 
9.250000e-01  4.612605778604752e-03 
9.300000e-01  5.878581329110911e-03 
9.350000e-01  3.318375642609498e-02 
9.400000e-01  1.047062906214653e-01 
9.450000e-01  2.155626262239133e-01 
9.500000e-01  3.550516707183332e-01 
9.550000e-01  5.092036996836100e-01 
9.600000e-01  6.624270194470571e-01 
9.650000e-01  7.992321566422756e-01 
9.700000e-01  9.059488687618881e-01 
9.750000e-01  9.723731276530923e-01 
9.800000e-01  9.947822673583570e-01 
9.850000e-01  9.953085459083376e-01 
9.900000e-01  9.952318754090530e-01 
9.950000e-01  9.952440194952570e-01 
1.000000e+00  9.952418384185939e-01 
