TITLE ="t=0.000032" 
VARIABLES = "x"                 "phi" 
ZONE I=201, ZONETYPE=Ordered, DATAPACKING=POINT
0.000000e+00  5.209882322371222e-01 
5.000000e-03  5.196945442034909e-01 
1.000000e-02  5.160466261781816e-01 
1.500000e-02  5.116433166748446e-01 
2.000000e-02  5.093137521692114e-01 
2.500000e-02  5.094219145133879e-01 
3.000000e-02  5.084799820915583e-01 
3.500000e-02  5.049264698086813e-01 
4.000000e-02  5.038436216117231e-01 
4.500000e-02  5.104871578338283e-01 
5.000000e-02  5.185489516095390e-01 
5.500000e-02  5.130689697511952e-01 
6.000000e-02  4.901300839684527e-01 
6.500000e-02  4.659998501346119e-01 
7.000000e-02  4.611794915370054e-01 
7.500000e-02  4.796757340481927e-01 
8.000000e-02  5.077094563223209e-01 
8.500000e-02  5.288197357898906e-01 
9.000000e-02  5.364045302322277e-01 
9.500000e-02  5.334909047815838e-01 
1.000000e-01  5.248567115860316e-01 
1.050000e-01  5.129479009111558e-01 
1.100000e-01  5.006427614064421e-01 
1.150000e-01  4.921023001170431e-01 
1.200000e-01  4.887322784547011e-01 
1.250000e-01  4.884969767021713e-01 
1.300000e-01  4.904470411132960e-01 
1.350000e-01  4.969625977378657e-01 
1.400000e-01  5.074947599695565e-01 
1.450000e-01  5.142432443949584e-01 
1.500000e-01  5.095829253499301e-01 
1.550000e-01  4.957506292287694e-01 
1.600000e-01  4.821105362927359e-01 
1.650000e-01  4.756971122701257e-01 
1.700000e-01  4.775221763945788e-01 
1.750000e-01  4.852536053816940e-01 
1.800000e-01  4.962178310200753e-01 
1.850000e-01  5.076316142161993e-01 
1.900000e-01  5.160346149160013e-01 
1.950000e-01  5.194057912045283e-01 
2.000000e-01  5.180333658193369e-01 
2.050000e-01  5.127714974013129e-01 
2.100000e-01  5.045817552037739e-01 
2.150000e-01  4.971533651280060e-01 
2.200000e-01  4.959039573261370e-01 
2.250000e-01  5.018813824053854e-01 
2.300000e-01  5.094193301982693e-01 
2.350000e-01  5.121055852543999e-01 
2.400000e-01  5.099183761501015e-01 
2.450000e-01  5.068438847303347e-01 
2.500000e-01  5.048204430645885e-01 
2.550000e-01  5.047810639957130e-01 
2.600000e-01  5.092183299957060e-01 
2.650000e-01  5.165956210352067e-01 
2.700000e-01  5.179574816344459e-01 
2.750000e-01  5.065558076149228e-01 
2.800000e-01  4.893667145427074e-01 
2.850000e-01  4.833623015344665e-01 
2.900000e-01  4.965428482243613e-01 
2.950000e-01  5.156443590898121e-01 
3.000000e-01  5.192232433803312e-01 
3.050000e-01  5.019727445363783e-01 
3.100000e-01  4.802010812134914e-01 
3.150000e-01  4.730794567314377e-01 
3.200000e-01  4.817507580761248e-01 
3.250000e-01  4.899268994361576e-01 
3.300000e-01  4.837189704478175e-01 
3.350000e-01  4.677304426771844e-01 
3.400000e-01  4.601163970174119e-01 
3.450000e-01  4.738668893721920e-01 
3.500000e-01  5.035662714375961e-01 
3.550000e-01  5.297050409232807e-01 
3.600000e-01  5.352321095961485e-01 
3.650000e-01  5.198059292816513e-01 
3.700000e-01  4.990419420649525e-01 
3.750000e-01  4.905322651628437e-01 
3.800000e-01  4.993968847143532e-01 
3.850000e-01  5.138749295294228e-01 
3.900000e-01  5.171746593911739e-01 
3.950000e-01  5.059556490680088e-01 
4.000000e-01  4.942942573037247e-01 
4.050000e-01  4.965281487368164e-01 
4.100000e-01  5.094557785566127e-01 
4.150000e-01  5.173019220168709e-01 
4.200000e-01  5.130774741639720e-01 
4.250000e-01  5.054684089332873e-01 
4.300000e-01  5.036454970939280e-01 
4.350000e-01  5.045246179669752e-01 
4.400000e-01  5.003489085901559e-01 
4.450000e-01  4.932467198250361e-01 
4.500000e-01  4.936498421577200e-01 
4.550000e-01  5.038307659669742e-01 
4.600000e-01  5.133588816483285e-01 
4.650000e-01  5.116124954530865e-01 
4.700000e-01  5.005479265205469e-01 
4.750000e-01  4.924059590559134e-01 
4.800000e-01  4.953196803938791e-01 
4.850000e-01  5.038510613452167e-01 
4.900000e-01  5.057695739863223e-01 
4.950000e-01  4.974483275468632e-01 
5.000000e-01  4.900396745688818e-01 
5.050000e-01  4.957346808635628e-01 
5.100000e-01  5.099526370004246e-01 
5.150000e-01  5.146289776461769e-01 
5.200000e-01  5.003600373428602e-01 
5.250000e-01  4.796953364460810e-01 
5.300000e-01  4.715425015361493e-01 
5.350000e-01  4.780192385342640e-01 
5.400000e-01  4.862293653314309e-01 
5.450000e-01  4.875362236706585e-01 
5.500000e-01  4.861801093637056e-01 
5.550000e-01  4.890736430215433e-01 
5.600000e-01  4.932557372856045e-01 
5.650000e-01  4.905615692644216e-01 
5.700000e-01  4.811011184791623e-01 
5.750000e-01  4.756025222782703e-01 
5.800000e-01  4.830455127829265e-01 
5.850000e-01  4.987573606174695e-01 
5.900000e-01  5.092800585285772e-01 
5.950000e-01  5.081420328739106e-01 
6.000000e-01  5.022149078963802e-01 
6.050000e-01  5.006520091050318e-01 
6.100000e-01  5.014557537141336e-01 
6.150000e-01  4.956394986441663e-01 
6.200000e-01  4.845765139708763e-01 
6.250000e-01  4.823196125559977e-01 
6.300000e-01  4.971583960473657e-01 
6.350000e-01  5.172469403143733e-01 
6.400000e-01  5.226839996900091e-01 
6.450000e-01  5.101053065385506e-01 
6.500000e-01  4.969011570062159e-01 
6.550000e-01  4.995867557368811e-01 
6.600000e-01  5.141692012118316e-01 
6.650000e-01  5.214332019184300e-01 
6.700000e-01  5.099503246113928e-01 
6.750000e-01  4.884369609061973e-01 
6.800000e-01  4.747976789967826e-01 
6.850000e-01  4.764913111128793e-01 
6.900000e-01  4.845145102804089e-01 
6.950000e-01  4.870152133796610e-01 
7.000000e-01  4.836841399121005e-01 
7.050000e-01  4.824995735527556e-01 
7.100000e-01  4.862478474191704e-01 
7.150000e-01  4.876979343929572e-01 
7.200000e-01  4.795013121811653e-01 
7.250000e-01  4.662878918102632e-01 
7.300000e-01  4.625738808720066e-01 
7.350000e-01  4.758951732024806e-01 
7.400000e-01  4.958895593087975e-01 
7.450000e-01  5.050748004208971e-01 
7.500000e-01  4.983497793048700e-01 
7.550000e-01  4.865952563280403e-01 
7.600000e-01  4.821598952521906e-01 
7.650000e-01  4.843262655274842e-01 
7.700000e-01  4.838880595927131e-01 
7.750000e-01  4.795145425949300e-01 
7.800000e-01  4.793658386327902e-01 
7.850000e-01  4.865804630210405e-01 
7.900000e-01  4.932884978569221e-01 
7.950000e-01  4.934381426958599e-01 
8.000000e-01  4.929122248979809e-01 
8.050000e-01  4.994520088725661e-01 
8.100000e-01  5.079236100646605e-01 
8.150000e-01  5.070995854284004e-01 
8.200000e-01  4.981006477807546e-01 
8.250000e-01  4.951219312189193e-01 
8.300000e-01  5.051998463743567e-01 
8.350000e-01  5.182460190967219e-01 
8.400000e-01  5.218438851610472e-01 
8.450000e-01  5.171233764151044e-01 
8.500000e-01  5.152375532160888e-01 
8.550000e-01  5.216141920019195e-01 
8.600000e-01  5.297975521543770e-01 
8.650000e-01  5.299183820828498e-01 
8.700000e-01  5.182266706118516e-01 
8.750000e-01  4.993860726779124e-01 
8.800000e-01  4.833232791541401e-01 
8.850000e-01  4.786030260408161e-01 
8.900000e-01  4.852023020049654e-01 
8.950000e-01  4.949743946681937e-01 
9.000000e-01  5.005529064463656e-01 
9.050000e-01  5.022401389118228e-01 
9.100000e-01  5.025647996311241e-01 
9.150000e-01  5.003498056311663e-01 
9.200000e-01  4.939418805198913e-01 
9.250000e-01  4.889459450732419e-01 
9.300000e-01  4.947194480328444e-01 
9.350000e-01  5.116355080257728e-01 
9.400000e-01  5.269752260481130e-01 
9.450000e-01  5.296582705875149e-01 
9.500000e-01  5.228371080424230e-01 
9.550000e-01  5.169462921895279e-01 
9.600000e-01  5.152067935618694e-01 
9.650000e-01  5.126825237049822e-01 
9.700000e-01  5.082881172479565e-01 
9.750000e-01  5.084493667378820e-01 
9.800000e-01  5.161181300745951e-01 
9.850000e-01  5.215520297719461e-01 
9.900000e-01  5.131024563406924e-01 
9.950000e-01  4.951201260658795e-01 
1.000000e+00  4.857110755234871e-01 
