TITLE ="t=383.288398" 
VARIABLES = "x"                 "phi" 
ZONE I=201, ZONETYPE=Ordered, DATAPACKING=POINT
0.000000e+00  9.960934331808844e-01 
5.000000e-03  9.907582531416432e-01 
1.000000e-02  9.503275478795691e-01 
1.500000e-02  8.661318862420975e-01 
2.000000e-02  7.453191726051689e-01 
2.500000e-02  5.997485682804551e-01 
3.000000e-02  4.440634829228020e-01 
3.500000e-02  2.940228399499169e-01 
4.000000e-02  1.647637664891987e-01 
4.500000e-02  6.910607714515078e-02 
5.000000e-02  1.584111006678657e-02 
5.500000e-02  3.633381142895748e-03 
6.000000e-02  1.540547096823183e-02 
6.500000e-02  6.801711872494888e-02 
7.000000e-02  1.631082669227073e-01 
7.500000e-02  2.919635543529965e-01 
8.000000e-02  4.418088896917688e-01 
8.500000e-02  5.975287725708347e-01 
9.000000e-02  7.433605371925138e-01 
9.500000e-02  8.646319742683380e-01 
1.000000e-01  9.494314736536503e-01 
1.050000e-01  9.905180324416166e-01 
1.100000e-01  9.961041694498025e-01 
1.150000e-01  9.908013105179563e-01 
1.200000e-01  9.505072481766322e-01 
1.250000e-01  8.664444129284442e-01 
1.300000e-01  7.457410175437056e-01 
1.350000e-01  6.002439656485477e-01 
1.400000e-01  4.445887438168092e-01 
1.450000e-01  2.945312277711096e-01 
1.500000e-01  1.652107372604198e-01 
1.550000e-01  6.945471149888471e-02 
1.600000e-01  1.607167332465529e-02 
1.650000e-01  4.420330651161641e-03 
1.700000e-01  4.826994767703344e-03 
1.750000e-01  4.664133146266532e-03 
1.800000e-01  5.362453370948230e-03 
1.850000e-01  2.896939370794149e-02 
1.900000e-01  9.666912679754394e-02 
1.950000e-01  2.044279744018700e-01 
2.000000e-01  3.419156561738191e-01 
2.050000e-01  4.953856686346719e-01 
2.100000e-01  6.493213758899290e-01 
2.150000e-01  7.881548804841503e-01 
2.200000e-01  8.979894952783007e-01 
2.250000e-01  9.682457330717708e-01 
2.300000e-01  9.943096517271078e-01 
2.350000e-01  9.953668721027091e-01 
2.400000e-01  9.952210598917628e-01 
2.450000e-01  9.952559747788428e-01 
2.500000e-01  9.951745265463331e-01 
2.550000e-01  9.956424679279059e-01 
2.600000e-01  9.869019519220418e-01 
2.650000e-01  9.380734830096906e-01 
2.700000e-01  8.462925010444968e-01 
2.750000e-01  7.198214295424697e-01 
2.800000e-01  5.711642821423337e-01 
2.850000e-01  4.153052920600953e-01 
2.900000e-01  2.680222239559347e-01 
2.950000e-01  1.441474778839950e-01 
3.000000e-01  5.588959258780628e-02 
3.050000e-01  1.100467802128521e-02 
3.100000e-01  4.357999373956341e-03 
3.150000e-01  4.824504379243155e-03 
3.200000e-01  4.748702101833195e-03 
3.250000e-01  4.748628826364636e-03 
3.300000e-01  4.825224467973627e-03 
3.350000e-01  4.354772979140988e-03 
3.400000e-01  1.274624544252162e-02 
3.450000e-01  6.096600508748091e-02 
3.500000e-01  1.522080459373653e-01 
3.550000e-01  2.782859272660048e-01 
3.600000e-01  4.267403143117051e-01 
3.650000e-01  5.826093793964002e-01 
3.700000e-01  7.301142571222021e-01 
3.750000e-01  8.543980324803412e-01 
3.800000e-01  9.432055292302327e-01 
3.850000e-01  9.887000680553383e-01 
3.900000e-01  9.956448422147479e-01 
3.950000e-01  9.951748104372473e-01 
4.000000e-01  9.952531563004581e-01 
4.050000e-01  9.952410786082008e-01 
4.100000e-01  9.952429999107716e-01 
4.150000e-01  9.952427305924290e-01 
4.200000e-01  9.952428096046135e-01 
4.250000e-01  9.952427943341084e-01 
4.300000e-01  9.952430490231028e-01 
4.350000e-01  9.952416273543159e-01 
4.400000e-01  9.952509176009603e-01 
4.450000e-01  9.951911690677565e-01 
4.500000e-01  9.955552588374139e-01 
4.550000e-01  9.919187323806373e-01 
4.600000e-01  9.546678506024137e-01 
4.650000e-01  8.734504805594575e-01 
4.700000e-01  7.549309833258354e-01 
4.750000e-01  6.107046924026577e-01 
4.800000e-01  4.552664311960549e-01 
4.850000e-01  3.043483691594067e-01 
4.900000e-01  1.731849479568056e-01 
4.950000e-01  7.481190935159208e-02 
5.000000e-01  1.838383700247987e-02 
5.050000e-01  4.518077033523430e-03 
5.100000e-01  4.797101148411867e-03 
5.150000e-01  4.751801342944132e-03 
5.200000e-01  4.758796204074093e-03 
5.250000e-01  4.757666438084980e-03 
5.300000e-01  4.757806284211645e-03 
5.350000e-01  4.757749162189846e-03 
5.400000e-01  4.757714606452253e-03 
5.450000e-01  4.757729002636816e-03 
5.500000e-01  4.757399769069482e-03 
5.550000e-01  4.759275946039398e-03 
5.600000e-01  4.747050234202966e-03 
5.650000e-01  4.825927891987516e-03 
5.700000e-01  4.352486668286283e-03 
5.750000e-01  1.216899243968787e-02 
5.800000e-01  5.934708190141283e-02 
5.850000e-01  1.496626022279183e-01 
5.900000e-01  2.750609992104385e-01 
5.950000e-01  4.231602384727761e-01 
6.000000e-01  5.790377614581730e-01 
6.050000e-01  7.269138035334077e-01 
6.100000e-01  8.518904618014961e-01 
6.150000e-01  9.416336774530555e-01 
6.200000e-01  9.881710649319527e-01 
6.250000e-01  9.956473947183095e-01 
6.300000e-01  9.951742282680450e-01 
6.350000e-01  9.952530623047803e-01 
6.400000e-01  9.952411779876768e-01 
6.450000e-01  9.952412024869302e-01 
6.500000e-01  9.952530053452818e-01 
6.550000e-01  9.951748293126604e-01 
6.600000e-01  9.956444057890502e-01 
6.650000e-01  9.887503410476379e-01 
6.700000e-01  9.433583375743005e-01 
6.750000e-01  8.546432343046938e-01 
6.800000e-01  7.304281817649183e-01 
6.850000e-01  5.829605064630233e-01 
6.900000e-01  4.270929997131198e-01 
6.950000e-01  2.786043451701933e-01 
7.000000e-01  1.524601439028736e-01 
7.050000e-01  6.112724924854045e-02 
7.100000e-01  1.280491232568581e-02 
7.150000e-01  4.355163077340497e-03 
7.200000e-01  4.825474949179127e-03 
7.250000e-01  4.747118695612610e-03 
7.300000e-01  4.759238732639302e-03 
7.350000e-01  4.757292386652423e-03 
7.400000e-01  4.757935001908753e-03 
7.450000e-01  4.755683201239586e-03 
7.500000e-01  4.769853719973378e-03 
7.550000e-01  4.680275253331072e-03 
7.600000e-01  5.302931330275808e-03 
7.650000e-01  2.844196944635804e-02 
7.700000e-01  9.564578760699008e-02 
7.750000e-01  2.030001312989067e-01 
7.800000e-01  3.402235804941748e-01 
7.850000e-01  4.935991200832308e-01 
7.900000e-01  6.476205012848698e-01 
7.950000e-01  7.867103945586260e-01 
8.000000e-01  8.969435398045464e-01 
8.050000e-01  9.676929542400973e-01 
8.100000e-01  9.942384426970291e-01 
8.150000e-01  9.953746025556282e-01 
8.200000e-01  9.952213607357928e-01 
8.250000e-01  9.952460244299933e-01 
8.300000e-01  9.952403599101609e-01 
8.350000e-01  9.952525341976427e-01 
8.400000e-01  9.951772132055838e-01 
8.450000e-01  9.956295968671587e-01 
8.500000e-01  9.859782105800833e-01 
8.550000e-01  9.356317464664070e-01 
8.600000e-01  8.425140324830692e-01 
8.650000e-01  7.150738434023567e-01 
8.700000e-01  5.659252517487618e-01 
8.750000e-01  4.101068374885329e-01 
8.800000e-01  2.633919795596272e-01 
8.850000e-01  1.405503345639603e-01 
8.900000e-01  5.367260568883234e-02 
8.950000e-01  1.031003882969983e-02 
9.000000e-01  4.368272916508173e-03 
9.050000e-01  4.822689090612239e-03 
9.100000e-01  4.747667659644019e-03 
9.150000e-01  4.756109793781454e-03 
9.200000e-01  4.775285551793123e-03 
9.250000e-01  4.643677122747785e-03 
9.300000e-01  5.600540109668535e-03 
9.350000e-01  3.103669210997199e-02 
9.400000e-01  1.006467964682913e-01 
9.450000e-01  2.099588013412846e-01 
9.500000e-01  3.484556137791250e-01 
9.550000e-01  5.022780415587388e-01 
9.600000e-01  6.558706108340626e-01 
9.650000e-01  7.937031481959550e-01 
9.700000e-01  9.019905846088665e-01 
9.750000e-01  9.703388163790467e-01 
9.800000e-01  9.945622992078587e-01 
9.850000e-01  9.953367598739721e-01 
9.900000e-01  9.952274785867593e-01 
9.950000e-01  9.952448656187014e-01 
1.000000e+00  9.952417448903714e-01 
