TITLE ="t=0.002048" 
VARIABLES = "x"                 "phi" 
ZONE I=201, ZONETYPE=Ordered, DATAPACKING=POINT
0.000000e+00  5.159802064986471e-01 
5.000000e-03  5.160478477724179e-01 
1.000000e-02  5.161603368625398e-01 
1.500000e-02  5.160713599258580e-01 
2.000000e-02  5.154498725120290e-01 
2.500000e-02  5.139838791352151e-01 
3.000000e-02  5.114918078568262e-01 
3.500000e-02  5.080100301318952e-01 
4.000000e-02  5.038297588166660e-01 
4.500000e-02  4.994705790367954e-01 
5.000000e-02  4.955939858595861e-01 
5.500000e-02  4.928731476194163e-01 
6.000000e-02  4.918444566777457e-01 
6.500000e-02  4.927734504024702e-01 
7.000000e-02  4.955699773091595e-01 
7.500000e-02  4.997801716749202e-01 
8.000000e-02  5.046647552455080e-01 
8.500000e-02  5.093495949384530e-01 
9.000000e-02  5.130128922306860e-01 
9.500000e-02  5.150604527545921e-01 
1.000000e-01  5.152416857782814e-01 
1.050000e-01  5.136762395699453e-01 
1.100000e-01  5.107886452387155e-01 
1.150000e-01  5.071749233372542e-01 
1.200000e-01  5.034424564772710e-01 
1.250000e-01  5.000695674588892e-01 
1.300000e-01  4.973231261233951e-01 
1.350000e-01  4.952520706105531e-01 
1.400000e-01  4.937486361716290e-01 
1.450000e-01  4.926481616212824e-01 
1.500000e-01  4.918300230261633e-01 
1.550000e-01  4.912863418437501e-01 
1.600000e-01  4.911369846508964e-01 
1.650000e-01  4.915851606423065e-01 
1.700000e-01  4.928261719456967e-01 
1.750000e-01  4.949403769426143e-01 
1.800000e-01  4.978132529087057e-01 
1.850000e-01  5.011208409992006e-01 
1.900000e-01  5.043943908573320e-01 
1.950000e-01  5.071436593123086e-01 
2.000000e-01  5.089927740680444e-01 
2.050000e-01  5.097796930719369e-01 
2.100000e-01  5.095888957286803e-01 
2.150000e-01  5.087134265648470e-01 
2.200000e-01  5.075632244718482e-01 
2.250000e-01  5.065478279612434e-01 
2.300000e-01  5.059661086852799e-01 
2.350000e-01  5.059349236087692e-01 
2.400000e-01  5.063791239127532e-01 
2.450000e-01  5.070850867297344e-01 
2.500000e-01  5.077944903293552e-01 
2.550000e-01  5.082973387798950e-01 
2.600000e-01  5.084850659356113e-01 
2.650000e-01  5.083463933403856e-01 
2.700000e-01  5.079173883661422e-01 
2.750000e-01  5.072161977777817e-01 
2.800000e-01  5.061947350111197e-01 
2.850000e-01  5.047284158528452e-01 
2.900000e-01  5.026494574810548e-01 
2.950000e-01  4.998152417841608e-01 
3.000000e-01  4.961927073187724e-01 
3.050000e-01  4.919326374041061e-01 
3.100000e-01  4.874051374106468e-01 
3.150000e-01  4.831732617913114e-01 
3.200000e-01  4.798988364007655e-01 
3.250000e-01  4.781993805276774e-01 
3.300000e-01  4.784959337873507e-01 
3.350000e-01  4.808969972279909e-01 
3.400000e-01  4.851522347938999e-01 
3.450000e-01  4.906892273719251e-01 
3.500000e-01  4.967255604009341e-01 
3.550000e-01  5.024295984585117e-01 
3.600000e-01  5.070890091447926e-01 
3.650000e-01  5.102433560465925e-01 
3.700000e-01  5.117504221008260e-01 
3.750000e-01  5.117784543298177e-01 
3.800000e-01  5.107347355710863e-01 
3.850000e-01  5.091495891888845e-01 
3.900000e-01  5.075408426359277e-01 
3.950000e-01  5.062918643382123e-01 
4.000000e-01  5.055789702216935e-01 
4.050000e-01  5.053698463732256e-01 
4.100000e-01  5.054853526482616e-01 
4.150000e-01  5.056905410335050e-01 
4.200000e-01  5.057754094082139e-01 
4.250000e-01  5.056032083382459e-01 
4.300000e-01  5.051271281175700e-01 
4.350000e-01  5.043865474718932e-01 
4.400000e-01  5.034894674041294e-01 
4.450000e-01  5.025815364195085e-01 
4.500000e-01  5.018053748311911e-01 
4.550000e-01  5.012627227964457e-01 
4.600000e-01  5.009938716071137e-01 
4.650000e-01  5.009794354616884e-01 
4.700000e-01  5.011569324782068e-01 
4.750000e-01  5.014391915946691e-01 
4.800000e-01  5.017257385127248e-01 
4.850000e-01  5.019070626966788e-01 
4.900000e-01  5.018682898748535e-01 
4.950000e-01  5.014989053029536e-01 
5.000000e-01  5.007092688151935e-01 
5.050000e-01  4.994482689818096e-01 
5.100000e-01  4.977154203945358e-01 
5.150000e-01  4.955650531887295e-01 
5.200000e-01  4.931046901336376e-01 
5.250000e-01  4.904901993868586e-01 
5.300000e-01  4.879176501641672e-01 
5.350000e-01  4.856091068450364e-01 
5.400000e-01  4.837894050636551e-01 
5.450000e-01  4.826545202050128e-01 
5.500000e-01  4.823379906609717e-01 
5.550000e-01  4.828851425034451e-01 
5.600000e-01  4.842419375756614e-01 
5.650000e-01  4.862588969606877e-01 
5.700000e-01  4.887070525861422e-01 
5.750000e-01  4.913042583348607e-01 
5.800000e-01  4.937523665889143e-01 
5.850000e-01  4.957844403164541e-01 
5.900000e-01  4.972162449912512e-01 
5.950000e-01  4.979905571550397e-01 
6.000000e-01  4.981996186512000e-01 
6.050000e-01  4.980734463681600e-01 
6.100000e-01  4.979308122885928e-01 
6.150000e-01  4.981021844736508e-01 
6.200000e-01  4.988435891591038e-01 
6.250000e-01  5.002635157035638e-01 
6.300000e-01  5.022821801739159e-01 
6.350000e-01  5.046351552051239e-01 
6.400000e-01  5.069222446423831e-01 
6.450000e-01  5.086899031775082e-01 
6.500000e-01  5.095264061060576e-01 
6.550000e-01  5.091470579887833e-01 
6.600000e-01  5.074511862210614e-01 
6.650000e-01  5.045399943965861e-01 
6.700000e-01  5.006923702940363e-01 
6.750000e-01  4.963046747782727e-01 
6.800000e-01  4.918102705190651e-01 
6.850000e-01  4.876016524499266e-01 
6.900000e-01  4.839769349537341e-01 
6.950000e-01  4.811211869998067e-01 
7.000000e-01  4.791175378422389e-01 
7.050000e-01  4.779727232706479e-01 
7.100000e-01  4.776414752150591e-01 
7.150000e-01  4.780407026983207e-01 
7.200000e-01  4.790521268825811e-01 
7.250000e-01  4.805180551014743e-01 
7.300000e-01  4.822387933379982e-01 
7.350000e-01  4.839811142179278e-01 
7.400000e-01  4.855041418425569e-01 
7.450000e-01  4.866019070226305e-01 
7.500000e-01  4.871524833843951e-01 
7.550000e-01  4.871560538770742e-01 
7.600000e-01  4.867439016729688e-01 
7.650000e-01  4.861501924023561e-01 
7.700000e-01  4.856543330409520e-01 
7.750000e-01  4.855137210961629e-01 
7.800000e-01  4.859081838881235e-01 
7.850000e-01  4.869107687246667e-01 
7.900000e-01  4.884909213933778e-01 
7.950000e-01  4.905474604757072e-01 
8.000000e-01  4.929591781860458e-01 
8.050000e-01  4.956329947138521e-01 
8.100000e-01  4.985293412608364e-01 
8.150000e-01  5.016540520195820e-01 
8.200000e-01  5.050204650239534e-01 
8.250000e-01  5.085969894071617e-01 
8.300000e-01  5.122599170425474e-01 
8.350000e-01  5.157693072689785e-01 
8.400000e-01  5.187798106955853e-01 
8.450000e-01  5.208897862396402e-01 
8.500000e-01  5.217212839255432e-01 
8.550000e-01  5.210120392630616e-01 
8.600000e-01  5.186933491064941e-01 
8.650000e-01  5.149297689561578e-01 
8.700000e-01  5.101081798063668e-01 
8.750000e-01  5.047790025925547e-01 
8.800000e-01  4.995644623219173e-01 
8.850000e-01  4.950553237481198e-01 
8.900000e-01  4.917191030090847e-01 
8.950000e-01  4.898394880629635e-01 
9.000000e-01  4.894980101754913e-01 
9.050000e-01  4.905965676377285e-01 
9.100000e-01  4.929076780450996e-01 
9.150000e-01  4.961329979188452e-01 
9.200000e-01  4.999520949893245e-01 
9.250000e-01  5.040517370540667e-01 
9.300000e-01  5.081367849103345e-01 
9.350000e-01  5.119315969649130e-01 
9.400000e-01  5.151825065525195e-01 
9.450000e-01  5.176682582728145e-01 
9.500000e-01  5.192191323082791e-01 
9.550000e-01  5.197394731832778e-01 
9.600000e-01  5.192250987602721e-01 
9.650000e-01  5.177690121151441e-01 
9.700000e-01  5.155549505569800e-01 
9.750000e-01  5.128428182465121e-01 
9.800000e-01  5.099483788355099e-01 
9.850000e-01  5.072150154528526e-01 
9.900000e-01  5.049755184839849e-01 
9.950000e-01  5.035082486996106e-01 
1.000000e+00  5.029976731263571e-01 
