TITLE ="t=743.288398" 
VARIABLES = "x"                 "phi" 
ZONE I=201, ZONETYPE=Ordered, DATAPACKING=POINT
0.000000e+00  9.962103812488800e-01 
5.000000e-03  9.896388105465532e-01 
1.000000e-02  9.463802037129295e-01 
1.500000e-02  8.595944580714299e-01 
2.000000e-02  7.368241894204098e-01 
2.500000e-02  5.901524308388846e-01 
3.000000e-02  4.343442450711589e-01 
3.500000e-02  2.851719661323808e-01 
4.000000e-02  1.576768084857893e-01 
4.500000e-02  6.447898430613515e-02 
5.000000e-02  1.403707196520948e-02 
5.500000e-02  3.608023593151280e-03 
6.000000e-02  1.368024871875946e-02 
6.500000e-02  6.351941491236532e-02 
7.000000e-02  1.561873108681195e-01 
7.500000e-02  2.832983132693410e-01 
8.000000e-02  4.322757892046026e-01 
8.500000e-02  5.881000725667442e-01 
9.000000e-02  7.349971078156718e-01 
9.500000e-02  8.581769820835923e-01 
1.000000e-01  9.455099623626655e-01 
1.050000e-01  9.893719086637176e-01 
1.100000e-01  9.962561520292764e-01 
1.150000e-01  9.888054126324813e-01 
1.200000e-01  9.436764722496003e-01 
1.250000e-01  8.551982356563547e-01 
1.300000e-01  7.311627803305450e-01 
1.350000e-01  5.837974184586719e-01 
1.400000e-01  4.279438507381996e-01 
1.450000e-01  2.793793871038987e-01 
1.500000e-01  1.530781524695319e-01 
1.550000e-01  6.152502944558428e-02 
1.600000e-01  1.295072415026318e-02 
1.650000e-01  4.347106203052114e-03 
1.700000e-01  4.869052813072777e-03 
1.750000e-01  4.476195450747636e-03 
1.800000e-01  7.351143081455720e-03 
1.850000e-01  4.193958197858273e-02 
1.900000e-01  1.206268733915634e-01 
1.950000e-01  2.371748242479740e-01 
2.000000e-01  3.802158560239576e-01 
2.050000e-01  5.353862406572895e-01 
2.100000e-01  6.869829644677068e-01 
2.150000e-01  8.196964395191686e-01 
2.200000e-01  9.203159896650764e-01 
2.250000e-01  9.793968613752384e-01 
2.300000e-01  9.953588831471610e-01 
2.350000e-01  9.952237189333611e-01 
2.400000e-01  9.952434431511297e-01 
2.450000e-01  9.952522410645986e-01 
2.500000e-01  9.951745680466617e-01 
2.550000e-01  9.956443079316487e-01 
2.600000e-01  9.871337745218948e-01 
2.650000e-01  9.387048962763614e-01 
2.700000e-01  8.472777113591565e-01 
2.750000e-01  7.210647332468045e-01 
2.800000e-01  5.725406045288000e-01 
2.850000e-01  4.166748296997335e-01 
2.900000e-01  2.692458910491909e-01 
2.950000e-01  1.451022884694908e-01 
3.000000e-01  5.648319286680571e-02 
3.050000e-01  1.119769519564330e-02 
3.100000e-01  4.356106736270117e-03 
3.150000e-01  4.824873478579526e-03 
3.200000e-01  4.748665569143502e-03 
3.250000e-01  4.748638399732363e-03 
3.300000e-01  4.825282832078360e-03 
3.350000e-01  4.354467839050911e-03 
3.400000e-01  1.269811563007371e-02 
3.450000e-01  6.083310258939030e-02 
3.500000e-01  1.519999295265026e-01 
3.550000e-01  2.780228055398652e-01 
3.600000e-01  4.264486516060385e-01 
3.650000e-01  5.823187968078870e-01 
3.700000e-01  7.298542608653298e-01 
3.750000e-01  8.541947524164920e-01 
3.800000e-01  9.430786372940191e-01 
3.850000e-01  9.886580981600910e-01 
3.900000e-01  9.956451486001492e-01 
3.950000e-01  9.951747376213614e-01 
4.000000e-01  9.952531446456906e-01 
4.050000e-01  9.952410519034884e-01 
4.100000e-01  9.952429697862099e-01 
4.150000e-01  9.952426951071960e-01 
4.200000e-01  9.952427699323328e-01 
4.250000e-01  9.952427446975545e-01 
4.300000e-01  9.952430261431451e-01 
4.350000e-01  9.952413960770864e-01 
4.400000e-01  9.952519801530320e-01 
4.450000e-01  9.951837658847024e-01 
4.500000e-01  9.955965850775615e-01 
4.550000e-01  9.909758867493818e-01 
4.600000e-01  9.508542203391647e-01 
4.650000e-01  8.669536408180264e-01 
4.700000e-01  7.463691184822325e-01 
4.750000e-01  6.009332091177776e-01 
4.800000e-01  4.452743512188279e-01 
4.850000e-01  2.951486443192788e-01 
4.900000e-01  1.657027878218719e-01 
4.950000e-01  6.977823177638379e-02 
5.000000e-01  1.620573380281224e-02 
5.050000e-01  4.427592665614564e-03 
5.100000e-01  4.812774344983234e-03 
5.150000e-01  4.749342372012265e-03 
5.200000e-01  4.759142836871138e-03 
5.250000e-01  4.757588900567879e-03 
5.300000e-01  4.757809957229474e-03 
5.350000e-01  4.757755125239643e-03 
5.400000e-01  4.757735289141685e-03 
5.450000e-01  4.757761797320314e-03 
5.500000e-01  4.757449341959130e-03 
5.550000e-01  4.759314328432943e-03 
5.600000e-01  4.747255359281807e-03 
5.650000e-01  4.825142809665437e-03 
5.700000e-01  4.357348117519953e-03 
5.750000e-01  1.306380888672975e-02 
5.800000e-01  6.183355771983522e-02 
5.850000e-01  1.535625507396378e-01 
5.900000e-01  2.799957180132383e-01 
5.950000e-01  4.286333728054916e-01 
6.000000e-01  5.844934461115129e-01 
6.050000e-01  7.317980593636446e-01 
6.100000e-01  8.557124307045484e-01 
6.150000e-01  9.440234942707502e-01 
6.200000e-01  9.889672936311333e-01 
6.250000e-01  9.956423806470797e-01 
6.300000e-01  9.951752497099934e-01 
6.350000e-01  9.952530037681557e-01 
6.400000e-01  9.952412717890546e-01 
6.450000e-01  9.952412702749374e-01 
6.500000e-01  9.952530092495255e-01 
6.550000e-01  9.951752054430135e-01 
6.600000e-01  9.956426124482451e-01 
6.650000e-01  9.889451646822061e-01 
6.700000e-01  9.439551208684204e-01 
6.750000e-01  8.556023204675978e-01 
6.800000e-01  7.316568510850708e-01 
6.850000e-01  5.843353234671586e-01 
6.900000e-01  4.284743880538003e-01 
6.950000e-01  2.798520172134012e-01 
7.000000e-01  1.534485910498520e-01 
7.050000e-01  6.176041802298999e-02 
7.100000e-01  1.303682897738455e-02 
7.150000e-01  4.357091462106981e-03 
7.200000e-01  4.825181181596245e-03 
7.250000e-01  4.747237595107943e-03 
7.300000e-01  4.759306375645762e-03 
7.350000e-01  4.757410483700468e-03 
7.400000e-01  4.757893975999628e-03 
7.450000e-01  4.756754877382518e-03 
7.500000e-01  4.763886494263896e-03 
7.550000e-01  4.718662265313148e-03 
7.600000e-01  5.020244470948767e-03 
7.650000e-01  2.557446946372402e-02 
7.700000e-01  8.997863448504503e-02 
7.750000e-01  1.950346642069360e-01 
7.800000e-01  3.307417308789009e-01 
7.850000e-01  4.835525814946582e-01 
7.900000e-01  6.380232902746245e-01 
7.950000e-01  7.785272351150511e-01 
8.000000e-01  8.909818779302129e-01 
8.050000e-01  9.644973078101611e-01 
8.100000e-01  9.937866714676704e-01 
8.150000e-01  9.954211505796448e-01 
8.200000e-01  9.952138677341733e-01 
8.250000e-01  9.952474173208040e-01 
8.300000e-01  9.952402944145039e-01 
8.350000e-01  9.952532621667163e-01 
8.400000e-01  9.951741764333693e-01 
8.450000e-01  9.956476259334971e-01 
8.500000e-01  9.878758159733603e-01 
8.550000e-01  9.407805687926294e-01 
8.600000e-01  8.505388251875852e-01 
8.650000e-01  7.251946388750171e-01 
8.700000e-01  5.771239069060891e-01 
8.750000e-01  4.212460542968073e-01 
8.800000e-01  2.733408913258578e-01 
8.850000e-01  1.483095435913476e-01 
8.900000e-01  5.849229493294369e-02 
8.950000e-01  1.187218890885981e-02 
9.000000e-01  4.352542201557966e-03 
9.050000e-01  4.825762416623030e-03 
9.100000e-01  4.747326403922225e-03 
9.150000e-01  4.756658323592578e-03 
9.200000e-01  4.773141951735847e-03 
9.250000e-01  4.657562026167872e-03 
9.300000e-01  5.484338914045881e-03 
9.350000e-01  3.006533518750007e-02 
9.400000e-01  9.878742921121857e-02 
9.450000e-01  2.073788644466245e-01 
9.500000e-01  3.454089688996816e-01 
9.550000e-01  4.990706208400982e-01 
9.600000e-01  6.528260430940540e-01 
9.650000e-01  7.911271382101396e-01 
9.700000e-01  9.001365495114921e-01 
9.750000e-01  9.693734407619510e-01 
9.800000e-01  9.944492068706408e-01 
9.850000e-01  9.953504630395230e-01 
9.900000e-01  9.952253233961543e-01 
9.950000e-01  9.952452769768815e-01 
1.000000e+00  9.952416967046472e-01 
