TITLE ="t=413.288398" 
VARIABLES = "x"                 "phi" 
ZONE I=201, ZONETYPE=Ordered, DATAPACKING=POINT
0.000000e+00  9.961068592415545e-01 
5.000000e-03  9.906424335461356e-01 
1.000000e-02  9.498977980345327e-01 
1.500000e-02  8.654126192245619e-01 
2.000000e-02  7.443797459365978e-01 
2.500000e-02  5.986835619070003e-01 
3.000000e-02  4.429813522459963e-01 
3.500000e-02  2.930339046525552e-01 
4.000000e-02  1.639680490452584e-01 
4.500000e-02  6.858175298565505e-02 
5.000000e-02  1.563005556919161e-02 
5.500000e-02  3.626723637007664e-03 
6.000000e-02  1.526791340607376e-02 
6.500000e-02  6.767079345801412e-02 
7.000000e-02  1.625806319923948e-01 
7.500000e-02  2.913064446623372e-01 
8.000000e-02  4.410887802626489e-01 
8.500000e-02  5.968190942425659e-01 
9.000000e-02  7.427335811941221e-01 
9.500000e-02  8.641508883757847e-01 
1.000000e-01  9.491427035219903e-01 
1.050000e-01  9.904384388713169e-01 
1.100000e-01  9.961120447451485e-01 
1.150000e-01  9.907420981675801e-01 
1.200000e-01  9.502860480794477e-01 
1.250000e-01  8.660733837275132e-01 
1.300000e-01  7.452556305519653e-01 
1.350000e-01  5.996927875388551e-01 
1.400000e-01  4.440276038714685e-01 
1.450000e-01  2.940170338207798e-01 
1.500000e-01  1.647952007024402e-01 
1.550000e-01  6.917837148466613e-02 
1.600000e-01  1.595637771852544e-02 
1.650000e-01  4.416266746706922e-03 
1.700000e-01  4.828878676655472e-03 
1.750000e-01  4.656306906926984e-03 
1.800000e-01  5.423852495058190e-03 
1.850000e-01  2.951879119861830e-02 
1.900000e-01  9.773231272987236e-02 
1.950000e-01  2.059097845560209e-01 
2.000000e-01  3.436704252811323e-01 
2.050000e-01  4.972372438755298e-01 
2.100000e-01  6.510829392511792e-01 
2.150000e-01  7.896495096460682e-01 
2.200000e-01  8.990700174715142e-01 
2.250000e-01  9.688144321729499e-01 
2.300000e-01  9.943809714394772e-01 
2.350000e-01  9.953586946858890e-01 
2.400000e-01  9.952223707425421e-01 
2.450000e-01  9.952558073691217e-01 
2.500000e-01  9.951742716585984e-01 
2.550000e-01  9.956440746387570e-01 
2.600000e-01  9.870811853159071e-01 
2.650000e-01  9.385606054811239e-01 
2.700000e-01  8.470520466428868e-01 
2.750000e-01  7.207795779697148e-01 
2.800000e-01  5.722246411669364e-01 
2.850000e-01  4.163601683726506e-01 
2.900000e-01  2.689645161122354e-01 
2.950000e-01  1.448825184759952e-01 
3.000000e-01  5.634633436672908e-02 
3.050000e-01  1.115291825733072e-02 
3.100000e-01  4.356506426012016e-03 
3.150000e-01  4.824793349763367e-03 
3.200000e-01  4.748671824645184e-03 
3.250000e-01  4.748640255396144e-03 
3.300000e-01  4.825245947784126e-03 
3.350000e-01  4.354673656701669e-03 
3.400000e-01  1.273070365959920e-02 
3.450000e-01  6.092312079092732e-02 
3.500000e-01  1.521409040686043e-01 
3.550000e-01  2.782010478016864e-01 
3.600000e-01  4.266462350568865e-01 
3.650000e-01  5.825156559353230e-01 
3.700000e-01  7.300304072075341e-01 
3.750000e-01  8.543324837720723e-01 
3.800000e-01  9.431646249719650e-01 
3.850000e-01  9.886865555790318e-01 
3.900000e-01  9.956449442193980e-01 
3.950000e-01  9.951747892101767e-01 
4.000000e-01  9.952531567313336e-01 
4.050000e-01  9.952410755758041e-01 
4.100000e-01  9.952429972597532e-01 
4.150000e-01  9.952427277084996e-01 
4.200000e-01  9.952428066736169e-01 
4.250000e-01  9.952427907492496e-01 
4.300000e-01  9.952430485783477e-01 
4.350000e-01  9.952416057659556e-01 
4.400000e-01  9.952510300055030e-01 
4.450000e-01  9.951904085538370e-01 
4.500000e-01  9.955595552094936e-01 
4.550000e-01  9.918346115824193e-01 
4.600000e-01  9.543053742976125e-01 
4.650000e-01  8.728258655486388e-01 
4.700000e-01  7.541034248200551e-01 
4.750000e-01  6.097567510809813e-01 
4.800000e-01  4.542939699808818e-01 
4.850000e-01  3.034499134329198e-01 
4.900000e-01  1.724508266885542e-01 
4.950000e-01  7.431388102684164e-02 
5.000000e-01  1.816279225868856e-02 
5.050000e-01  4.507484127148007e-03 
5.100000e-01  4.798912694457658e-03 
5.150000e-01  4.751521048032095e-03 
5.200000e-01  4.758839930129643e-03 
5.250000e-01  4.757660862946094e-03 
5.300000e-01  4.757809804359960e-03 
5.350000e-01  4.757752659659457e-03 
5.400000e-01  4.757719508913019e-03 
5.450000e-01  4.757735063372378e-03 
5.500000e-01  4.757407177517069e-03 
5.550000e-01  4.759283712159110e-03 
5.600000e-01  4.747064596367116e-03 
5.650000e-01  4.825908552497206e-03 
5.700000e-01  4.352663060928097e-03 
5.750000e-01  1.227198606192932e-02 
5.800000e-01  5.964000724216639e-02 
5.850000e-01  1.501248216261523e-01 
5.900000e-01  2.756476718472611e-01 
5.950000e-01  4.238123661055595e-01 
6.000000e-01  5.796891128044563e-01 
6.050000e-01  7.274982313263071e-01 
6.100000e-01  8.523492126619258e-01 
6.150000e-01  9.419223042494942e-01 
6.200000e-01  9.882696751730730e-01 
6.250000e-01  9.956471324503369e-01 
6.300000e-01  9.951742880115195e-01 
6.350000e-01  9.952530630739639e-01 
6.400000e-01  9.952411857947641e-01 
6.450000e-01  9.952412066090164e-01 
6.500000e-01  9.952530115637719e-01 
6.550000e-01  9.951748099870326e-01 
6.600000e-01  9.956445185860158e-01 
6.650000e-01  9.887366364896343e-01 
6.700000e-01  9.433166816989833e-01 
6.750000e-01  8.545764114904231e-01 
6.800000e-01  7.303426549407309e-01 
6.850000e-01  5.828648701206907e-01 
6.900000e-01  4.269969652298902e-01 
6.950000e-01  2.785176670128067e-01 
7.000000e-01  1.523915421540480e-01 
7.050000e-01  6.108338880673664e-02 
7.100000e-01  1.278896026200200e-02 
7.150000e-01  4.355050527271386e-03 
7.200000e-01  4.825496171539993e-03 
7.250000e-01  4.747118053892447e-03 
7.300000e-01  4.759242914923454e-03 
7.350000e-01  4.757299780792234e-03 
7.400000e-01  4.757930010446290e-03 
7.450000e-01  4.755769678621221e-03 
7.500000e-01  4.769364033480471e-03 
7.550000e-01  4.683399195716182e-03 
7.600000e-01  5.278856886625204e-03 
7.650000e-01  2.821539153743456e-02 
7.700000e-01  9.520370846067118e-02 
7.750000e-01  2.023819436849746e-01 
7.800000e-01  3.394900194789777e-01 
7.850000e-01  4.928238188126053e-01 
7.900000e-01  6.468816945866376e-01 
7.950000e-01  7.860823079916212e-01 
8.000000e-01  8.964880686116248e-01 
8.050000e-01  9.674514547783895e-01 
8.100000e-01  9.942066807366184e-01 
8.150000e-01  9.953781054967611e-01 
8.200000e-01  9.952208038746093e-01 
8.250000e-01  9.952461326779189e-01 
8.300000e-01  9.952403487641600e-01 
8.350000e-01  9.952526519791386e-01 
8.400000e-01  9.951765977459069e-01 
8.450000e-01  9.956331175572906e-01 
8.500000e-01  9.861871078332805e-01 
8.550000e-01  9.361745359917207e-01 
8.600000e-01  8.433499414171477e-01 
8.650000e-01  7.161214907190797e-01 
8.700000e-01  5.670792210346900e-01 
8.750000e-01  4.112499531696911e-01 
8.800000e-01  2.644082403666494e-01 
8.850000e-01  1.413377469761609e-01 
8.900000e-01  5.415529574291362e-02 
8.950000e-01  1.045770852890975e-02 
9.000000e-01  4.365603028477443e-03 
9.050000e-01  4.823194434559744e-03 
9.100000e-01  4.747601457285380e-03 
9.150000e-01  4.756182695953367e-03 
9.200000e-01  4.774989265486071e-03 
9.250000e-01  4.645568544016953e-03 
9.300000e-01  5.584427574399140e-03 
9.350000e-01  3.090488064266551e-02 
9.400000e-01  1.003953489558077e-01 
9.450000e-01  2.096104056095349e-01 
9.500000e-01  3.480445627813429e-01 
9.550000e-01  5.018456154623674e-01 
9.600000e-01  6.554604414062091e-01 
9.650000e-01  7.933564164697652e-01 
9.700000e-01  9.017413894210564e-01 
9.750000e-01  9.702095167565059e-01 
9.800000e-01  9.945474821183116e-01 
9.850000e-01  9.953385852430602e-01 
9.900000e-01  9.952271923103292e-01 
9.950000e-01  9.952449204534293e-01 
1.000000e+00  9.952417386319994e-01 
