TITLE ="t=123.288398" 
VARIABLES = "x"                 "phi" 
ZONE I=201, ZONETYPE=Ordered, DATAPACKING=POINT
0.000000e+00  9.957925769204382e-01 
5.000000e-03  9.928450691273549e-01 
1.000000e-02  9.593721567401939e-01 
1.500000e-02  8.817371674534216e-01 
2.000000e-02  7.660021917603664e-01 
2.500000e-02  6.234407703805632e-01 
3.000000e-02  4.683634921912747e-01 
3.500000e-02  3.164630538768316e-01 
4.000000e-02  1.830822410510292e-01 
4.500000e-02  8.150593132113571e-02 
5.000000e-02  2.129550213254671e-02 
5.500000e-02  4.094105322796541e-03 
6.000000e-02  1.794401269569167e-02 
6.500000e-02  7.398924288529160e-02 
7.000000e-02  1.720323369002129e-01 
7.500000e-02  3.029648770220876e-01 
8.000000e-02  4.537777580542152e-01 
8.500000e-02  6.092484237407847e-01 
9.000000e-02  7.536413067178248e-01 
9.500000e-02  8.724431788613322e-01 
1.000000e-01  9.540257676896489e-01 
1.050000e-01  9.916534447791455e-01 
1.100000e-01  9.961302999339706e-01 
1.150000e-01  9.878179978194570e-01 
1.200000e-01  9.406471438183620e-01 
1.250000e-01  8.503371497956007e-01 
1.300000e-01  7.249431100767590e-01 
1.350000e-01  5.768469343477191e-01 
1.400000e-01  4.209710425414502e-01 
1.450000e-01  2.730951501305129e-01 
1.500000e-01  1.481172364799477e-01 
1.550000e-01  5.837157136621488e-02 
1.600000e-01  1.183094628682625e-02 
1.650000e-01  4.350235661821047e-03 
1.700000e-01  4.837649607632578e-03 
1.750000e-01  4.671605156524029e-03 
1.800000e-01  5.287608470651167e-03 
1.850000e-01  2.827333487435188e-02 
1.900000e-01  9.531487005802419e-02 
1.950000e-01  2.025365179886984e-01 
2.000000e-01  3.396728967899775e-01 
2.050000e-01  4.930167138683054e-01 
2.100000e-01  6.470652151739097e-01 
2.150000e-01  7.862380952423178e-01 
2.200000e-01  8.966008627437414e-01 
2.250000e-01  9.675111347926895e-01 
2.300000e-01  9.942144516915992e-01 
2.350000e-01  9.953773762527790e-01 
2.400000e-01  9.952196153413411e-01 
2.450000e-01  9.952537069509100e-01 
2.500000e-01  9.951899496780974e-01 
2.550000e-01  9.955546724398228e-01 
2.600000e-01  9.832958462572576e-01 
2.650000e-01  9.290426901810859e-01 
2.700000e-01  8.325314790244615e-01 
2.750000e-01  7.026713745431583e-01 
2.800000e-01  5.523507474425423e-01 
2.850000e-01  3.967378859605405e-01 
2.900000e-01  2.515839033941775e-01 
2.950000e-01  1.314860936865345e-01 
3.000000e-01  4.822117332994465e-02 
3.050000e-01  8.783820987733141e-03 
3.100000e-01  4.412696014023784e-03 
3.150000e-01  4.814456546752314e-03 
3.200000e-01  4.750055990848983e-03 
3.250000e-01  4.748582587449079e-03 
3.300000e-01  4.823629631606695e-03 
3.350000e-01  4.363777374567120e-03 
3.400000e-01  1.360749520950459e-02 
3.450000e-01  6.328691742082007e-02 
3.500000e-01  1.558186638601504e-01 
3.550000e-01  2.828352343480758e-01 
3.600000e-01  4.317706231253370e-01 
3.650000e-01  5.876098107719703e-01 
3.700000e-01  7.345771541425383e-01 
3.750000e-01  8.578750976307538e-01 
3.800000e-01  9.453608419863547e-01 
3.850000e-01  9.893923537296522e-01 
3.900000e-01  9.956368996489999e-01 
3.950000e-01  9.951763568588015e-01 
4.000000e-01  9.952530142088509e-01 
4.050000e-01  9.952411862953351e-01 
4.100000e-01  9.952430603260394e-01 
4.150000e-01  9.952427903356594e-01 
4.200000e-01  9.952428605389078e-01 
4.250000e-01  9.952428432991931e-01 
4.300000e-01  9.952430592932581e-01 
4.350000e-01  9.952418330226174e-01 
4.400000e-01  9.952498231238861e-01 
4.450000e-01  9.951984704557330e-01 
4.500000e-01  9.955135065253967e-01 
4.550000e-01  9.926306615727227e-01 
4.600000e-01  9.579575024133697e-01 
4.650000e-01  8.791888430223855e-01 
4.700000e-01  7.625768185007329e-01 
4.750000e-01  6.194965047184759e-01 
4.800000e-01  4.643160211284499e-01 
4.850000e-01  3.127395101341521e-01 
4.900000e-01  1.800743395730742e-01 
4.950000e-01  7.952575009861923e-02 
5.000000e-01  2.052941892887394e-02 
5.050000e-01  4.636487931743297e-03 
5.100000e-01  4.777296059170640e-03 
5.150000e-01  4.754832601006181e-03 
5.200000e-01  4.758279877126827e-03 
5.250000e-01  4.757691123489915e-03 
5.300000e-01  4.757732724795377e-03 
5.350000e-01  4.757677148634510e-03 
5.400000e-01  4.757628693019576e-03 
5.450000e-01  4.757630715208832e-03 
5.500000e-01  4.757294560676657e-03 
5.550000e-01  4.759126419434956e-03 
5.600000e-01  4.747096217177944e-03 
5.650000e-01  4.824601408190268e-03 
5.700000e-01  4.358836181733358e-03 
5.750000e-01  1.092692119316962e-02 
5.800000e-01  5.564780000523924e-02 
5.850000e-01  1.437575033200183e-01 
5.900000e-01  2.675217387290755e-01 
5.950000e-01  4.147445684506011e-01 
6.000000e-01  5.706002471855743e-01 
6.050000e-01  7.193113694996732e-01 
6.100000e-01  8.458877353828621e-01 
6.150000e-01  9.378133677443348e-01 
6.200000e-01  9.868055314661679e-01 
6.250000e-01  9.956413763516604e-01 
6.300000e-01  9.951751824191128e-01 
6.350000e-01  9.952528089932785e-01 
6.400000e-01  9.952411380530587e-01 
6.450000e-01  9.952411935774488e-01 
6.500000e-01  9.952528249169316e-01 
6.550000e-01  9.951760168921572e-01 
6.600000e-01  9.956380585896866e-01 
6.650000e-01  9.893105145902252e-01 
6.700000e-01  9.450999930178758e-01 
6.750000e-01  8.574521273763929e-01 
6.800000e-01  7.340329565851403e-01 
6.850000e-01  5.869990726126260e-01 
6.900000e-01  4.311553535150318e-01 
6.950000e-01  2.822779085724813e-01 
7.000000e-01  1.553753229785871e-01 
7.050000e-01  6.300062000185054e-02 
7.100000e-01  1.349934135748872e-02 
7.150000e-01  4.362308308693312e-03 
7.200000e-01  4.824231929462459e-03 
7.250000e-01  4.747342589131415e-03 
7.300000e-01  4.759218967162138e-03 
7.350000e-01  4.757271828843530e-03 
7.400000e-01  4.758002531455648e-03 
7.450000e-01  4.755012693453262e-03 
7.500000e-01  4.773794412940076e-03 
7.550000e-01  4.655376701588628e-03 
7.600000e-01  5.502302867245417e-03 
7.650000e-01  3.021837573018000e-02 
7.700000e-01  9.908121235136637e-02 
7.750000e-01  2.077869220069416e-01 
7.800000e-01  3.458911227789315e-01 
7.850000e-01  4.995784373232919e-01 
7.900000e-01  6.533082759895977e-01 
7.950000e-01  7.915353709724127e-01 
8.000000e-01  9.004306406202562e-01 
8.050000e-01  9.695269706578209e-01 
8.100000e-01  9.944675174232077e-01 
8.150000e-01  9.953482106650844e-01 
8.200000e-01  9.952255254515212e-01 
8.250000e-01  9.952451796757887e-01 
8.300000e-01  9.952405764047099e-01 
8.350000e-01  9.952507123644980e-01 
8.400000e-01  9.951878602381948e-01 
8.450000e-01  9.955690555144719e-01 
8.500000e-01  9.836963926554757e-01 
8.550000e-01  9.299887406382480e-01 
8.600000e-01  8.339475152308082e-01 
8.650000e-01  7.044191210197638e-01 
8.700000e-01  5.542543660948146e-01 
8.750000e-01  3.986042787065127e-01 
8.800000e-01  2.532240106109679e-01 
8.850000e-01  1.327358556920324e-01 
8.900000e-01  4.896131922190674e-02 
8.950000e-01  8.975567277883676e-03 
9.000000e-01  4.405225193408175e-03 
9.050000e-01  4.815857486422224e-03 
9.100000e-01  4.748635043065529e-03 
9.150000e-01  4.755288152793163e-03 
9.200000e-01  4.778667804121071e-03 
9.250000e-01  4.622367277747935e-03 
9.300000e-01  5.788412597959804e-03 
9.350000e-01  3.251217640365953e-02 
9.400000e-01  1.034437048793027e-01 
9.450000e-01  2.138238805273540e-01 
9.500000e-01  3.530081748412140e-01 
9.550000e-01  5.070607881332638e-01 
9.600000e-01  6.604009430600006e-01 
9.650000e-01  7.975262803369823e-01 
9.700000e-01  9.047307448708676e-01 
9.750000e-01  9.717510741878326e-01 
9.800000e-01  9.947176038155103e-01 
9.850000e-01  9.953170621773132e-01 
9.900000e-01  9.952305535463897e-01 
9.950000e-01  9.952442744190729e-01 
1.000000e+00  9.952418106216534e-01 
