TITLE ="t=703.288398" 
VARIABLES = "x"                 "phi" 
ZONE I=201, ZONETYPE=Ordered, DATAPACKING=POINT
0.000000e+00  9.961972681417884e-01 
5.000000e-03  9.897791338278065e-01 
1.000000e-02  9.468521370264330e-01 
1.500000e-02  8.603680715183122e-01 
2.000000e-02  7.378244019521686e-01 
2.500000e-02  5.912782908283893e-01 
3.000000e-02  4.354809214109813e-01 
3.500000e-02  2.862034486138221e-01 
4.000000e-02  1.584987031498601e-01 
4.500000e-02  6.501063489199686e-02 
5.000000e-02  1.423754610477561e-02 
5.500000e-02  3.606486761062444e-03 
6.000000e-02  1.389524002617399e-02 
6.500000e-02  6.409898827590796e-02 
7.000000e-02  1.570873363711690e-01 
7.500000e-02  2.844305411732841e-01 
8.000000e-02  4.335256556757952e-01 
8.500000e-02  5.893400225768604e-01 
9.000000e-02  7.361006666701944e-01 
9.500000e-02  8.590327402389663e-01 
1.000000e-01  9.460347817044239e-01 
1.050000e-01  9.895318095145109e-01 
1.100000e-01  9.962386601465542e-01 
1.150000e-01  9.890833769169464e-01 
1.200000e-01  9.445567716629570e-01 
1.250000e-01  8.566223601583691e-01 
1.300000e-01  7.329927590606581e-01 
1.350000e-01  5.858490644877321e-01 
1.400000e-01  4.300085135141444e-01 
1.450000e-01  2.812470173543177e-01 
1.500000e-01  1.545604929126534e-01 
1.550000e-01  6.247760905737832e-02 
1.600000e-01  1.330350200096718e-02 
1.650000e-01  4.351618205123019e-03 
1.700000e-01  4.863725464980755e-03 
1.750000e-01  4.504269504793232e-03 
1.800000e-01  6.958763323431878e-03 
1.850000e-01  3.991084225676058e-02 
1.900000e-01  1.170218200018331e-01 
1.950000e-01  2.323308031582817e-01 
2.000000e-01  3.746140276861402e-01 
2.050000e-01  5.295916552413025e-01 
2.100000e-01  6.815816799801087e-01 
2.150000e-01  8.152309716900890e-01 
2.200000e-01  9.172234474018418e-01 
2.250000e-01  9.779400145596805e-01 
2.300000e-01  9.952623293091037e-01 
2.350000e-01  9.952392200208573e-01 
2.400000e-01  9.952410574390987e-01 
2.450000e-01  9.952526619260937e-01 
2.500000e-01  9.951743788242288e-01 
2.550000e-01  9.956451528530598e-01 
2.600000e-01  9.872483055892437e-01 
2.650000e-01  9.390195257318770e-01 
2.700000e-01  8.477696964695398e-01 
2.750000e-01  7.216862747574133e-01 
2.800000e-01  5.732291785892262e-01 
2.850000e-01  4.173605038092564e-01 
2.900000e-01  2.698590470346662e-01 
2.950000e-01  1.455813187007067e-01 
3.000000e-01  5.678177167493859e-02 
3.050000e-01  1.129586961172744e-02 
3.100000e-01  4.355298077532159e-03 
3.150000e-01  4.825033014950718e-03 
3.200000e-01  4.748650984812858e-03 
3.250000e-01  4.748652466282754e-03 
3.300000e-01  4.825264757178091e-03 
3.350000e-01  4.354596768318746e-03 
3.400000e-01  1.271823966132217e-02 
3.450000e-01  6.088869275744767e-02 
3.500000e-01  1.520869824525950e-01 
3.550000e-01  2.781328653103278e-01 
3.600000e-01  4.265706476037940e-01 
3.650000e-01  5.824403394539446e-01 
3.700000e-01  7.299630097898773e-01 
3.750000e-01  8.542797804511468e-01 
3.800000e-01  9.431317192673180e-01 
3.850000e-01  9.886756671307729e-01 
3.900000e-01  9.956450209348572e-01 
3.950000e-01  9.951747647321938e-01 
4.000000e-01  9.952531450107605e-01 
4.050000e-01  9.952410569906116e-01 
4.100000e-01  9.952429747835264e-01 
4.150000e-01  9.952427007768445e-01 
4.200000e-01  9.952427760806911e-01 
4.250000e-01  9.952427518363148e-01 
4.300000e-01  9.952430311089496e-01 
4.350000e-01  9.952414191164513e-01 
4.400000e-01  9.952518919284766e-01 
4.450000e-01  9.951844075228236e-01 
4.500000e-01  9.955930514994145e-01 
4.550000e-01  9.910712897369862e-01 
4.600000e-01  9.512176996304114e-01 
4.650000e-01  8.675658084336509e-01 
4.700000e-01  7.471715021766213e-01 
4.750000e-01  6.018455313706680e-01 
4.800000e-01  4.462041941493338e-01 
4.850000e-01  2.960016913909703e-01 
4.900000e-01  1.663932247381197e-01 
4.950000e-01  7.023865700468863e-02 
5.000000e-01  1.639952459112552e-02 
5.050000e-01  4.434352123564207e-03 
5.100000e-01  4.811588910147916e-03 
5.150000e-01  4.749532089021590e-03 
5.200000e-01  4.759119891783910e-03 
5.250000e-01  4.757597776133627e-03 
5.300000e-01  4.757812383661560e-03 
5.350000e-01  4.757757079830535e-03 
5.400000e-01  4.757735824288786e-03 
5.450000e-01  4.757761150897937e-03 
5.500000e-01  4.757446901780098e-03 
5.550000e-01  4.759313871494832e-03 
5.600000e-01  4.747232812335107e-03 
5.650000e-01  4.825254880410032e-03 
5.700000e-01  4.356694230405717e-03 
5.750000e-01  1.299282365575518e-02 
5.800000e-01  6.164085327325024e-02 
5.850000e-01  1.532621706085540e-01 
5.900000e-01  2.796168577773658e-01 
5.950000e-01  4.282141464918039e-01 
6.000000e-01  5.840764304991957e-01 
6.050000e-01  7.314255923838040e-01 
6.100000e-01  8.554219303017290e-01 
6.150000e-01  9.438430368405802e-01 
6.200000e-01  9.889087994982664e-01 
6.250000e-01  9.956429795829291e-01 
6.300000e-01  9.951751315422499e-01 
6.350000e-01  9.952530127736986e-01 
6.400000e-01  9.952412619551205e-01 
6.450000e-01  9.952412611936816e-01 
6.500000e-01  9.952530155905663e-01 
6.550000e-01  9.951751090604776e-01 
6.600000e-01  9.956430975756201e-01 
6.650000e-01  9.888968817709431e-01 
6.700000e-01  9.438063656609559e-01 
6.750000e-01  8.553629291295731e-01 
6.800000e-01  7.313499606400917e-01 
6.850000e-01  5.839917634821358e-01 
6.900000e-01  4.281290381337713e-01 
6.950000e-01  2.795399506802280e-01 
7.000000e-01  1.532012020815867e-01 
7.050000e-01  6.160175161732290e-02 
7.100000e-01  1.297844231521360e-02 
7.150000e-01  4.356562422538563e-03 
7.200000e-01  4.825267584246614e-03 
7.250000e-01  4.747213144217903e-03 
7.300000e-01  4.759298056037023e-03 
7.350000e-01  4.757395379135428e-03 
7.400000e-01  4.757897356727201e-03 
7.450000e-01  4.756634055937255e-03 
7.500000e-01  4.764553629929913e-03 
7.550000e-01  4.714340638246653e-03 
7.600000e-01  5.050705659804592e-03 
7.650000e-01  2.590809330779110e-02 
7.700000e-01  9.064655363424143e-02 
7.750000e-01  1.959782199009955e-01 
7.800000e-01  3.318683677905085e-01 
7.850000e-01  4.847492207809618e-01 
7.900000e-01  6.391691199069470e-01 
7.950000e-01  7.795070090386561e-01 
8.000000e-01  8.916987979724013e-01 
8.050000e-01  9.648855351292606e-01 
8.100000e-01  9.938452763017794e-01 
8.150000e-01  9.954154921347821e-01 
8.200000e-01  9.952147895993914e-01 
8.250000e-01  9.952472522942564e-01 
8.300000e-01  9.952402986109694e-01 
8.350000e-01  9.952532326386712e-01 
8.400000e-01  9.951741974553431e-01 
8.450000e-01  9.956473869943736e-01 
8.500000e-01  9.877208621823047e-01 
8.550000e-01  9.403393520906255e-01 
8.600000e-01  8.498424067098354e-01 
8.650000e-01  7.243105772049099e-01 
8.700000e-01  5.761411060577115e-01 
8.750000e-01  4.202643287891659e-01 
8.800000e-01  2.724599389928498e-01 
8.850000e-01  1.476179283025427e-01 
8.900000e-01  5.805702815295950e-02 
8.950000e-01  1.172329717368087e-02 
9.000000e-01  4.352910927562634e-03 
9.050000e-01  4.825676595978766e-03 
9.100000e-01  4.747326335114555e-03 
9.150000e-01  4.756630992828286e-03 
9.200000e-01  4.773230842777722e-03 
9.250000e-01  4.656958939526668e-03 
9.300000e-01  5.489276158456211e-03 
9.350000e-01  3.010763118801277e-02 
9.400000e-01  9.886870759395934e-02 
9.450000e-01  2.074918229369042e-01 
9.500000e-01  3.455424968794892e-01 
9.550000e-01  4.992113112405749e-01 
9.600000e-01  6.529596998329219e-01 
9.650000e-01  7.912403387967221e-01 
9.700000e-01  9.002181530222886e-01 
9.750000e-01  9.694160940649567e-01 
9.800000e-01  9.944543247019453e-01 
9.850000e-01  9.953498542155834e-01 
9.900000e-01  9.952254195057000e-01 
9.950000e-01  9.952452587624092e-01 
1.000000e+00  9.952416989537902e-01 
