TITLE ="t=243.288398" 
VARIABLES = "x"                 "phi" 
ZONE I=201, ZONETYPE=Ordered, DATAPACKING=POINT
0.000000e+00  9.959851801386685e-01 
5.000000e-03  9.916071789590060e-01 
1.000000e-02  9.536686807596083e-01 
1.500000e-02  8.717899937221725e-01 
2.000000e-02  7.527511022559554e-01 
2.500000e-02  6.082074888003399e-01 
3.000000e-02  4.526890571651029e-01 
3.500000e-02  3.019365855694981e-01 
4.000000e-02  1.711658751453410e-01 
4.500000e-02  7.336750833736193e-02 
5.000000e-02  1.761581297615528e-02 
5.500000e-02  3.714376030962348e-03 
6.000000e-02  1.615780820280588e-02 
6.500000e-02  6.986924583829436e-02 
7.000000e-02  1.659118632434306e-01 
7.500000e-02  2.954429554891573e-01 
8.000000e-02  4.456120377592178e-01 
8.500000e-02  6.012678572800310e-01 
9.000000e-02  7.466547435513384e-01 
9.500000e-02  8.671496577634936e-01 
1.000000e-01  9.509299519910447e-01 
1.050000e-01  9.909122940580251e-01 
1.100000e-01  9.960999091058557e-01 
1.150000e-01  9.904707507829763e-01 
1.200000e-01  9.492567501965989e-01 
1.250000e-01  8.643447484942908e-01 
1.300000e-01  7.429936928111158e-01 
1.350000e-01  5.971246158837034e-01 
1.400000e-01  4.414140800046969e-01 
1.450000e-01  2.916239524070300e-01 
1.500000e-01  1.628639479072194e-01 
1.550000e-01  6.789798800951094e-02 
1.600000e-01  1.542804623555539e-02 
1.650000e-01  4.401112524656151e-03 
1.700000e-01  4.827388215097213e-03 
1.750000e-01  4.683235349163880e-03 
1.800000e-01  5.211582689267445e-03 
1.850000e-01  2.754297145436508e-02 
1.900000e-01  9.388405284601720e-02 
1.950000e-01  2.005323176725839e-01 
2.000000e-01  3.372921169981196e-01 
2.050000e-01  4.904983216947369e-01 
2.100000e-01  6.446633814645045e-01 
2.150000e-01  7.841942089739677e-01 
2.200000e-01  8.951164766647555e-01 
2.250000e-01  9.667213457203688e-01 
2.300000e-01  9.941082182405513e-01 
2.350000e-01  9.953889209311784e-01 
2.400000e-01  9.952175411111233e-01 
2.450000e-01  9.952558748558386e-01 
2.500000e-01  9.951784434568883e-01 
2.550000e-01  9.956198488728558e-01 
2.600000e-01  9.854769870691744e-01 
2.650000e-01  9.343493610912667e-01 
2.700000e-01  8.405477970120636e-01 
2.750000e-01  7.126152909022427e-01 
2.800000e-01  5.632217877085933e-01 
2.850000e-01  4.074329623535413e-01 
2.900000e-01  2.610189911841397e-01 
2.950000e-01  1.387163026855243e-01 
3.000000e-01  5.255403780956228e-02 
3.050000e-01  9.975616777071044e-03 
3.100000e-01  4.375376074336018e-03 
3.150000e-01  4.821242446241452e-03 
3.200000e-01  4.749108999077833e-03 
3.250000e-01  4.748565522177360e-03 
3.300000e-01  4.824865163459162e-03 
3.350000e-01  4.356730197115832e-03 
3.400000e-01  1.299951814991648e-02 
3.450000e-01  6.165951076680434e-02 
3.500000e-01  1.532915789353445e-01 
3.550000e-01  2.796542185063315e-01 
3.600000e-01  4.282557194972564e-01 
3.650000e-01  5.841179857978011e-01 
3.700000e-01  7.314628828273058e-01 
3.750000e-01  8.554511623726774e-01 
3.800000e-01  9.438613153682740e-01 
3.850000e-01  9.889148085540932e-01 
3.900000e-01  9.956429507006613e-01 
3.950000e-01  9.951751878993620e-01 
4.000000e-01  9.952531299097925e-01 
4.050000e-01  9.952411119974522e-01 
4.100000e-01  9.952430220712417e-01 
4.150000e-01  9.952427526960693e-01 
4.200000e-01  9.952428294554350e-01 
4.250000e-01  9.952428151863097e-01 
4.300000e-01  9.952430517286468e-01 
4.350000e-01  9.952417342775837e-01 
4.400000e-01  9.952503469947496e-01 
4.450000e-01  9.951949916207378e-01 
4.500000e-01  9.955335097276227e-01 
4.550000e-01  9.923106954104387e-01 
4.600000e-01  9.564261975489382e-01 
4.650000e-01  8.765019808857327e-01 
4.700000e-01  7.589872259173458e-01 
4.750000e-01  6.153613994077726e-01 
4.800000e-01  4.600529530899082e-01 
4.850000e-01  3.087799504351458e-01 
4.900000e-01  1.768161452823174e-01 
4.950000e-01  7.728766411464512e-02 
5.000000e-01  1.949911636547360e-02 
5.050000e-01  4.576153412066227e-03 
5.100000e-01  4.787284972564764e-03 
5.150000e-01  4.753309949233267e-03 
5.200000e-01  4.758548088144490e-03 
5.250000e-01  4.757686134079891e-03 
5.300000e-01  4.757777187242566e-03 
5.350000e-01  4.757720701364010e-03 
5.400000e-01  4.757679084148959e-03 
5.450000e-01  4.757687482247286e-03 
5.500000e-01  4.757352980356505e-03 
5.550000e-01  4.759217997131768e-03 
5.600000e-01  4.747019230891787e-03 
5.650000e-01  4.825673224026455e-03 
5.700000e-01  4.353461966097024e-03 
5.750000e-01  1.158702047402621e-02 
5.800000e-01  5.765453834441452e-02 
5.850000e-01  1.469767180081950e-01 
5.900000e-01  2.716420802282722e-01 
5.950000e-01  4.193520207055212e-01 
6.000000e-01  5.752269920731519e-01 
6.050000e-01  7.234875045839616e-01 
6.100000e-01  8.491931702367537e-01 
6.150000e-01  9.399269864636147e-01 
6.200000e-01  9.875746483404867e-01 
6.250000e-01  9.956469275439170e-01 
6.300000e-01  9.951742467679637e-01 
6.350000e-01  9.952530069400402e-01 
6.400000e-01  9.952411466568230e-01 
6.450000e-01  9.952411898444071e-01 
6.500000e-01  9.952529488016544e-01 
6.550000e-01  9.951751525167715e-01 
6.600000e-01  9.956426663638269e-01 
6.650000e-01  9.889380202251216e-01 
6.700000e-01  9.439331802716290e-01 
6.750000e-01  8.555670522072036e-01 
6.800000e-01  7.316116610042555e-01 
6.850000e-01  5.842847403725673e-01 
6.900000e-01  4.284235335048410e-01 
6.950000e-01  2.798060422187486e-01 
7.000000e-01  1.534121102221684e-01 
7.050000e-01  6.173697501173721e-02 
7.100000e-01  1.302815226051413e-02 
7.150000e-01  4.356991496846641e-03 
7.200000e-01  4.825156034417385e-03 
7.250000e-01  4.747170842961067e-03 
7.300000e-01  4.759225380740985e-03 
7.350000e-01  4.757269367280416e-03 
7.400000e-01  4.757965223528495e-03 
7.450000e-01  4.755298322725574e-03 
7.500000e-01  4.772073023775440e-03 
7.550000e-01  4.666193032106162e-03 
7.600000e-01  5.414007802187028e-03 
7.650000e-01  2.945243497015210e-02 
7.700000e-01  9.760642333173063e-02 
7.750000e-01  2.057356828585797e-01 
7.800000e-01  3.434651746392295e-01 
7.850000e-01  4.970213468824080e-01 
7.900000e-01  6.508780477770881e-01 
7.950000e-01  7.894760510776699e-01 
8.000000e-01  8.989449086168217e-01 
8.050000e-01  9.687488148841887e-01 
8.100000e-01  9.943729132876802e-01 
8.150000e-01  9.953593555818585e-01 
8.200000e-01  9.952237726597628e-01 
8.250000e-01  9.952455439321976e-01 
8.300000e-01  9.952404444178342e-01 
8.350000e-01  9.952517546287768e-01 
8.400000e-01  9.951815972602469e-01 
8.450000e-01  9.956046838040616e-01 
8.500000e-01  9.848548253232851e-01 
8.550000e-01  9.327938917188889e-01 
8.600000e-01  8.381788670878377e-01 
8.650000e-01  7.096638161470976e-01 
8.700000e-01  5.599847368852802e-01 
8.750000e-01  4.042388995141698e-01 
8.800000e-01  2.581918276681482e-01 
8.850000e-01  1.365394436789995e-01 
8.900000e-01  5.123656120682429e-02 
8.950000e-01  9.595637990773761e-03 
9.000000e-01  4.385053579731873e-03 
9.050000e-01  4.819556435073794e-03 
9.100000e-01  4.748098913274408e-03 
9.150000e-01  4.755705368378975e-03 
9.200000e-01  4.776941285642578e-03 
9.250000e-01  4.633185762428413e-03 
9.300000e-01  5.691550655820096e-03 
9.350000e-01  3.176508913544655e-02 
9.400000e-01  1.020315599208224e-01 
9.450000e-01  2.118747464412362e-01 
9.500000e-01  3.507140876561524e-01 
9.550000e-01  5.046522091952881e-01 
9.600000e-01  6.581209146417795e-01 
9.650000e-01  7.956036749454096e-01 
9.700000e-01  9.033544867051231e-01 
9.750000e-01  9.710439652392158e-01 
9.800000e-01  9.946413313045064e-01 
9.850000e-01  9.953268667150289e-01 
9.900000e-01  9.952290261700686e-01 
9.950000e-01  9.952445685078816e-01 
1.000000e+00  9.952417782529280e-01 
