TITLE ="t=723.288398" 
VARIABLES = "x"                 "phi" 
ZONE I=201, ZONETYPE=Ordered, DATAPACKING=POINT
0.000000e+00  9.962037614773395e-01 
5.000000e-03  9.897102345232598e-01 
1.000000e-02  9.466196884903109e-01 
1.500000e-02  8.599867688958406e-01 
2.000000e-02  7.373312446662776e-01 
2.500000e-02  5.907230500308436e-01 
3.000000e-02  4.349202263079586e-01 
3.500000e-02  2.856945230051426e-01 
4.000000e-02  1.580930540809738e-01 
4.500000e-02  6.474807329226762e-02 
5.000000e-02  1.413831594691192e-02 
5.500000e-02  3.607112372419467e-03 
6.000000e-02  1.378767441686691e-02 
6.500000e-02  6.380974707339297e-02 
7.000000e-02  1.566384766296437e-01 
7.500000e-02  2.838660756964351e-01 
8.000000e-02  4.329026971544342e-01 
8.500000e-02  5.887221433194332e-01 
9.000000e-02  7.355508856479107e-01 
9.500000e-02  8.586065545233152e-01 
1.000000e-01  9.457735857333321e-01 
1.050000e-01  9.894524569664936e-01 
1.100000e-01  9.962476032919160e-01 
1.150000e-01  9.889422563072632e-01 
1.200000e-01  9.441074665403835e-01 
1.250000e-01  8.558945895153339e-01 
1.300000e-01  7.320570044225033e-01 
1.350000e-01  5.847994951313924e-01 
1.400000e-01  4.289518596228306e-01 
1.450000e-01  2.802907709918807e-01 
1.500000e-01  1.538010407951152e-01 
1.550000e-01  6.198897605515977e-02 
1.600000e-01  1.312172447262414e-02 
1.650000e-01  4.349166589048579e-03 
1.700000e-01  4.866429605788424e-03 
1.750000e-01  4.490144070747507e-03 
1.800000e-01  7.149935145609515e-03 
1.850000e-01  4.092073333378171e-02 
1.900000e-01  1.188225270866813e-01 
1.950000e-01  2.347540816123500e-01 
2.000000e-01  3.774192909212717e-01 
2.050000e-01  5.324960202311417e-01 
2.100000e-01  6.842914585209211e-01 
2.150000e-01  8.174740159738951e-01 
2.200000e-01  9.187801600663655e-01 
2.250000e-01  9.786776815363593e-01 
2.300000e-01  9.953127509792149e-01 
2.350000e-01  9.952311926732842e-01 
2.400000e-01  9.952422927017763e-01 
2.450000e-01  9.952524437440060e-01 
2.500000e-01  9.951744700410824e-01 
2.550000e-01  9.956447496289530e-01 
2.600000e-01  9.871917268100893e-01 
2.650000e-01  9.388638501131067e-01 
2.700000e-01  8.475261647725599e-01 
2.750000e-01  7.213785462879911e-01 
2.800000e-01  5.728882089036609e-01 
2.850000e-01  4.170209221943937e-01 
2.900000e-01  2.695553322151261e-01 
2.950000e-01  1.453439873470362e-01 
3.000000e-01  5.663377716462991e-02 
3.050000e-01  1.124711679685292e-02 
3.100000e-01  4.355686686567098e-03 
3.150000e-01  4.824956209192869e-03 
3.200000e-01  4.748657910503246e-03 
3.250000e-01  4.748645766027625e-03 
3.300000e-01  4.825272839002926e-03 
3.350000e-01  4.354538199891396e-03 
3.400000e-01  1.270918298652288e-02 
3.450000e-01  6.086368310876455e-02 
3.500000e-01  1.520478214465979e-01 
3.550000e-01  2.780833569367788e-01 
3.600000e-01  4.265157717751058e-01 
3.650000e-01  5.823856691733643e-01 
3.700000e-01  7.299140957405071e-01 
3.750000e-01  8.542415374788704e-01 
3.800000e-01  9.431078466952656e-01 
3.850000e-01  9.886677686399371e-01 
3.900000e-01  9.956450787086628e-01 
3.950000e-01  9.951747524083627e-01 
4.000000e-01  9.952531447594501e-01 
4.050000e-01  9.952410545680314e-01 
4.100000e-01  9.952429723675495e-01 
4.150000e-01  9.952426980219459e-01 
4.200000e-01  9.952427730787534e-01 
4.250000e-01  9.952427483283598e-01 
4.300000e-01  9.952430287021123e-01 
4.350000e-01  9.952414075236611e-01 
4.400000e-01  9.952519368648983e-01 
4.450000e-01  9.951840816411813e-01 
4.500000e-01  9.955948474631405e-01 
4.550000e-01  9.910232652690316e-01 
4.600000e-01  9.510341714233349e-01 
4.650000e-01  8.672565291810952e-01 
4.700000e-01  7.467660077244989e-01 
4.750000e-01  6.013843881977724e-01 
4.800000e-01  4.457341140072643e-01 
4.850000e-01  2.955703545444877e-01 
4.900000e-01  1.660440220348858e-01 
4.950000e-01  7.000567948975116e-02 
5.000000e-01  1.630132034234382e-02 
5.050000e-01  4.430894018311086e-03 
5.100000e-01  4.812195117278708e-03 
5.150000e-01  4.749435187041135e-03 
5.200000e-01  4.759131720945696e-03 
5.250000e-01  4.757593324882901e-03 
5.300000e-01  4.757811220193045e-03 
5.350000e-01  4.757756147852301e-03 
5.400000e-01  4.757735608170286e-03 
5.450000e-01  4.757761530022021e-03 
5.500000e-01  4.757448182682672e-03 
5.550000e-01  4.759314164503623e-03 
5.600000e-01  4.747244160937760e-03 
5.650000e-01  4.825198888025249e-03 
5.700000e-01  4.357021396212191e-03 
5.750000e-01  1.302895003996165e-02 
5.800000e-01  6.173901713999690e-02 
5.850000e-01  1.534152228419788e-01 
5.900000e-01  2.798099229246355e-01 
5.950000e-01  4.284278019558524e-01 
6.000000e-01  5.842889773044814e-01 
6.050000e-01  7.316154513381166e-01 
6.100000e-01  8.555700278962309e-01 
6.150000e-01  9.439350588950617e-01 
6.200000e-01  9.889386616294183e-01 
6.250000e-01  9.956426785233670e-01 
6.300000e-01  9.951751909815021e-01 
6.350000e-01  9.952530082580391e-01 
6.400000e-01  9.952412669011668e-01 
6.450000e-01  9.952412656969216e-01 
6.500000e-01  9.952530126256475e-01 
6.550000e-01  9.951751557441023e-01 
6.600000e-01  9.956428630608838e-01 
6.650000e-01  9.889205433699005e-01 
6.700000e-01  9.438791940951631e-01 
6.750000e-01  8.554801048124129e-01 
6.800000e-01  7.315001580762887e-01 
6.850000e-01  5.841598939425886e-01 
6.900000e-01  4.282980322347327e-01 
6.950000e-01  2.796926455687854e-01 
7.000000e-01  1.533222366015333e-01 
7.050000e-01  6.167936217434620e-02 
7.100000e-01  1.300697896853731e-02 
7.150000e-01  4.356817201748123e-03 
7.200000e-01  4.825226094066863e-03 
7.250000e-01  4.747225061051627e-03 
7.300000e-01  4.759302228025964e-03 
7.350000e-01  4.757402905018312e-03 
7.400000e-01  4.757895657538818e-03 
7.450000e-01  4.756694466913657e-03 
7.500000e-01  4.764220051729277e-03 
7.550000e-01  4.716500734826727e-03 
7.600000e-01  5.035439150021990e-03 
7.650000e-01  2.574175438451177e-02 
7.700000e-01  9.031384398371385e-02 
7.750000e-01  1.955083741340662e-01 
7.800000e-01  3.313074761839189e-01 
7.850000e-01  4.841535789853376e-01 
7.900000e-01  6.385988622136736e-01 
7.950000e-01  7.790194887556933e-01 
8.000000e-01  8.913421760360444e-01 
8.050000e-01  9.646925502824604e-01 
8.100000e-01  9.938162764884032e-01 
8.150000e-01  9.954183055563623e-01 
8.200000e-01  9.952143316246521e-01 
8.250000e-01  9.952473344635102e-01 
8.300000e-01  9.952402965362731e-01 
8.350000e-01  9.952532483604383e-01 
8.400000e-01  9.951741813852596e-01 
8.450000e-01  9.956475377120442e-01 
8.500000e-01  9.877997504191589e-01 
8.550000e-01  9.405634450691193e-01 
8.600000e-01  8.501959003440116e-01 
8.650000e-01  7.247591760491674e-01 
8.700000e-01  5.766396965149109e-01 
8.750000e-01  4.207622731644801e-01 
8.800000e-01  2.729066696532010e-01 
8.850000e-01  1.479685358768486e-01 
8.900000e-01  5.827754566282363e-02 
8.950000e-01  1.179854184300774e-02 
9.000000e-01  4.352696533572691e-03 
9.050000e-01  4.825725151095355e-03 
9.100000e-01  4.747325551055811e-03 
9.150000e-01  4.756645638692426e-03 
9.200000e-01  4.773181868150107e-03 
9.250000e-01  4.657289189385495e-03 
9.300000e-01  5.486570223330330e-03 
9.350000e-01  3.008446280346633e-02 
9.400000e-01  9.882418991102161e-02 
9.450000e-01  2.074299558402306e-01 
9.500000e-01  3.454693657051853e-01 
9.550000e-01  4.991342588361508e-01 
9.600000e-01  6.528865009812728e-01 
9.650000e-01  7.911783444297598e-01 
9.700000e-01  9.001734643604453e-01 
9.750000e-01  9.693927376590944e-01 
9.800000e-01  9.944515236500708e-01 
9.850000e-01  9.953501875679224e-01 
9.900000e-01  9.952253668914784e-01 
9.950000e-01  9.952452687404041e-01 
1.000000e+00  9.952416977279097e-01 
