TITLE ="t=593.288398" 
VARIABLES = "x"                 "phi" 
ZONE I=201, ZONETYPE=Ordered, DATAPACKING=POINT
0.000000e+00  9.961641968190992e-01 
5.000000e-03  9.901140231486832e-01 
1.000000e-02  9.480030089350105e-01 
1.500000e-02  8.622635535413339e-01 
2.000000e-02  7.402807765564380e-01 
2.500000e-02  5.940477553568446e-01 
3.000000e-02  4.382810856455737e-01 
3.500000e-02  2.887485758556215e-01 
4.000000e-02  1.605312207790816e-01 
4.500000e-02  6.633100044635780e-02 
5.000000e-02  1.474313888205801e-02 
5.500000e-02  3.607819067957008e-03 
6.000000e-02  1.446113654314875e-02 
6.500000e-02  6.559748214786904e-02 
7.000000e-02  1.594031273312144e-01 
7.500000e-02  2.873365339558216e-01 
8.000000e-02  4.367279085307438e-01 
8.500000e-02  5.925118763851377e-01 
9.000000e-02  7.389187750876346e-01 
9.500000e-02  8.612128350267820e-01 
1.000000e-01  9.473654529738597e-01 
1.050000e-01  9.899290615594787e-01 
1.100000e-01  9.961858422999258e-01 
1.150000e-01  9.898634725164598e-01 
1.200000e-01  9.471390263722270e-01 
1.250000e-01  8.608422137680385e-01 
1.300000e-01  7.384426471679840e-01 
1.350000e-01  5.919811612703266e-01 
1.400000e-01  4.361996993335210e-01 
1.450000e-01  2.868677964647500e-01 
1.500000e-01  1.590444689842450e-01 
1.550000e-01  6.538745182757416e-02 
1.600000e-01  1.442024440341082e-02 
1.650000e-01  4.372392105519971e-03 
1.700000e-01  4.848519217601950e-03 
1.750000e-01  4.577651476344586e-03 
1.800000e-01  6.120769004267162e-03 
1.850000e-01  3.486845852720566e-02 
1.900000e-01  1.078432543385837e-01 
1.950000e-01  2.198650917411299e-01 
2.000000e-01  3.600951258317020e-01 
2.050000e-01  5.144812924636932e-01 
2.100000e-01  6.674062573782160e-01 
2.150000e-01  8.034135051761695e-01 
2.200000e-01  9.089221441709127e-01 
2.250000e-01  9.738757179545606e-01 
2.300000e-01  9.949291446030286e-01 
2.350000e-01  9.952887605683652e-01 
2.400000e-01  9.952334004167175e-01 
2.450000e-01  9.952540073738594e-01 
2.500000e-01  9.951740432216558e-01 
2.550000e-01  9.956464300002764e-01 
2.600000e-01  9.874595328628494e-01 
2.650000e-01  9.396050501263000e-01 
2.700000e-01  8.486874416824972e-01 
2.750000e-01  7.228470986580690e-01 
2.800000e-01  5.745163153663875e-01 
2.850000e-01  4.186432336334840e-01 
2.900000e-01  2.710071316652655e-01 
2.950000e-01  1.464793967675841e-01 
3.000000e-01  5.734296198129082e-02 
3.050000e-01  1.148235856134026e-02 
3.100000e-01  4.354044500414316e-03 
3.150000e-01  4.825282885509314e-03 
3.200000e-01  4.748629944635863e-03 
3.250000e-01  4.748672146786967e-03 
3.300000e-01  4.825253034765602e-03 
3.350000e-01  4.354703836554075e-03 
3.400000e-01  1.273423959830614e-02 
3.450000e-01  6.093283529267234e-02 
3.500000e-01  1.521560840103713e-01 
3.550000e-01  2.782202131934262e-01 
3.600000e-01  4.266674562703581e-01 
3.650000e-01  5.825367782884365e-01 
3.700000e-01  7.300492884397233e-01 
3.750000e-01  8.543472307634098e-01 
3.800000e-01  9.431738174269727e-01 
3.850000e-01  9.886895862943484e-01 
3.900000e-01  9.956449186115551e-01 
3.950000e-01  9.951747889956341e-01 
4.000000e-01  9.952531489990676e-01 
4.050000e-01  9.952410661240482e-01 
4.100000e-01  9.952429851842931e-01 
4.150000e-01  9.952427130829371e-01 
4.200000e-01  9.952427899600812e-01 
4.250000e-01  9.952427688358576e-01 
4.300000e-01  9.952430414136071e-01 
4.350000e-01  9.952414855817501e-01 
4.400000e-01  9.952516130240333e-01 
4.450000e-01  9.951863934771276e-01 
4.500000e-01  9.955820517697459e-01 
4.550000e-01  9.913469548773015e-01 
4.600000e-01  9.522941394688006e-01 
4.650000e-01  8.693873756889827e-01 
4.700000e-01  7.495644720595760e-01 
4.750000e-01  6.045706235219268e-01 
4.800000e-01  4.489854489440896e-01 
4.850000e-01  2.985570606882972e-01 
4.900000e-01  1.684656713372927e-01 
4.950000e-01  7.162580443734376e-02 
5.000000e-01  1.699024910195177e-02 
5.050000e-01  4.456551041239369e-03 
5.100000e-01  4.807711099064607e-03 
5.150000e-01  4.750147126750381e-03 
5.200000e-01  4.759040142904616e-03 
5.250000e-01  4.757622506585722e-03 
5.300000e-01  4.757816498795959e-03 
5.350000e-01  4.757760116461770e-03 
5.400000e-01  4.757734693105865e-03 
5.450000e-01  4.757756577881208e-03 
5.500000e-01  4.757437216130914e-03 
5.550000e-01  4.759309302277570e-03 
5.600000e-01  4.747168194739464e-03 
5.650000e-01  4.825554303426896e-03 
5.700000e-01  4.354922070645825e-03 
5.750000e-01  1.276796722998985e-02 
5.800000e-01  6.102551562745535e-02 
5.850000e-01  1.523009409567569e-01 
5.900000e-01  2.784031342541998e-01 
5.950000e-01  4.268700256197304e-01 
6.000000e-01  5.827384238029691e-01 
6.050000e-01  7.302295507112513e-01 
6.100000e-01  8.544880247453651e-01 
6.150000e-01  9.432615698786437e-01 
6.200000e-01  9.887184900778704e-01 
6.250000e-01  9.956446698393135e-01 
6.300000e-01  9.951747956596777e-01 
6.350000e-01  9.952530373120019e-01 
6.400000e-01  9.952412337923301e-01 
6.450000e-01  9.952412379070598e-01 
6.500000e-01  9.952530245818683e-01 
6.550000e-01  9.951749080988234e-01 
6.600000e-01  9.956440920254457e-01 
6.650000e-01  9.887885722884548e-01 
6.700000e-01  9.434747102386966e-01 
6.750000e-01  8.548299708206832e-01 
6.800000e-01  7.306672248131525e-01 
6.850000e-01  5.832278421050097e-01 
6.900000e-01  4.273614900279363e-01 
6.950000e-01  2.788467272081468e-01 
7.000000e-01  1.526520393179141e-01 
7.050000e-01  6.125001476653214e-02 
7.100000e-01  1.284966074409465e-02 
7.150000e-01  4.355502967814169e-03 
7.200000e-01  4.825436414003410e-03 
7.250000e-01  4.747159007956215e-03 
7.300000e-01  4.759275227980693e-03 
7.350000e-01  4.757355430419647e-03 
7.400000e-01  4.757907424673176e-03 
7.450000e-01  4.756302588963684e-03 
7.500000e-01  4.766386708945600e-03 
7.550000e-01  4.702500924882791e-03 
7.600000e-01  5.135872227961671e-03 
7.650000e-01  2.680630335200314e-02 
7.700000e-01  9.243308762030744e-02 
7.750000e-01  1.984956005758630e-01 
7.800000e-01  3.348695737395861e-01 
7.850000e-01  4.879330291430228e-01 
7.900000e-01  6.422141445955120e-01 
7.950000e-01  7.821070777973934e-01 
8.000000e-01  8.935971986226234e-01 
8.050000e-01  9.659083909330433e-01 
8.100000e-01  9.939946734461801e-01 
8.150000e-01  9.954005710024363e-01 
8.200000e-01  9.952172058095513e-01 
8.250000e-01  9.952468122147081e-01 
8.300000e-01  9.952403107113001e-01 
8.350000e-01  9.952531035391806e-01 
8.400000e-01  9.951745402493335e-01 
8.450000e-01  9.956451349508056e-01 
8.500000e-01  9.872316191783824e-01 
8.550000e-01  9.389730136277126e-01 
8.600000e-01  8.476965488819010e-01 
8.650000e-01  7.215935363521310e-01 
8.700000e-01  5.731261654118976e-01 
8.750000e-01  4.172576946484416e-01 
8.800000e-01  2.697669184690119e-01 
8.850000e-01  1.455091838275488e-01 
8.900000e-01  5.673668170285338e-02 
8.950000e-01  1.128094416580511e-02 
9.000000e-01  4.355356780385775e-03 
9.050000e-01  4.825172735123930e-03 
9.100000e-01  4.747365296815347e-03 
9.150000e-01  4.756514238871756e-03 
9.200000e-01  4.773664276285532e-03 
9.250000e-01  4.654104902450581e-03 
9.300000e-01  5.512807261397063e-03 
9.350000e-01  3.030789958866636e-02 
9.400000e-01  9.925314836934852e-02 
9.450000e-01  2.080258726370257e-01 
9.500000e-01  3.461736201345018e-01 
9.550000e-01  4.998761379152548e-01 
9.600000e-01  6.535911484250255e-01 
9.650000e-01  7.917750000004783e-01 
9.700000e-01  9.006034144743545e-01 
9.750000e-01  9.696172632158701e-01 
9.800000e-01  9.944783102891877e-01 
9.850000e-01  9.953469866149042e-01 
9.900000e-01  9.952258715912931e-01 
9.950000e-01  9.952451727658712e-01 
1.000000e+00  9.952417092801790e-01 
