TITLE ="t=293.288398" 
VARIABLES = "x"                 "phi" 
ZONE I=201, ZONETYPE=Ordered, DATAPACKING=POINT
0.000000e+00  9.960358514307600e-01 
5.000000e-03  9.912269660488469e-01 
1.000000e-02  9.521274585640381e-01 
1.500000e-02  8.691652193874964e-01 
2.000000e-02  7.492941737930623e-01 
2.500000e-02  6.042654624810487e-01 
3.000000e-02  4.486626117739413e-01 
3.500000e-02  2.982355924090849e-01 
4.000000e-02  1.681642303238242e-01 
4.500000e-02  7.136013715794708e-02 
5.000000e-02  1.676691854171894e-02 
5.500000e-02  3.670305979749467e-03 
6.000000e-02  1.586744017403795e-02 
6.500000e-02  6.916384681823434e-02 
7.000000e-02  1.648481700926567e-01 
7.500000e-02  2.941255679248933e-01 
8.000000e-02  4.441742319399737e-01 
8.500000e-02  5.998562102080888e-01 
9.000000e-02  7.454129770887100e-01 
9.500000e-02  8.662027187897200e-01 
1.000000e-01  9.503690018525974e-01 
1.050000e-01  9.907686280379677e-01 
1.100000e-01  9.960937166759195e-01 
1.150000e-01  9.907382104687394e-01 
1.200000e-01  9.502569103289148e-01 
1.250000e-01  8.660208886510334e-01 
1.300000e-01  7.451850198509380e-01 
1.350000e-01  5.996113788459004e-01 
1.400000e-01  4.439439113204730e-01 
1.450000e-01  2.939398210021626e-01 
1.500000e-01  1.647325102773274e-01 
1.550000e-01  6.913659048379510e-02 
1.600000e-01  1.593905354523853e-02 
1.650000e-01  4.416543911720791e-03 
1.700000e-01  4.825283785733030e-03 
1.750000e-01  4.679687473412048e-03 
1.800000e-01  5.241564126822173e-03 
1.850000e-01  2.783631609698934e-02 
1.900000e-01  9.445984275962273e-02 
1.950000e-01  2.013394085504472e-01 
2.000000e-01  3.382512486404010e-01 
2.050000e-01  4.915132293655138e-01 
2.100000e-01  6.456316494580840e-01 
2.150000e-01  7.850185414306569e-01 
2.200000e-01  8.957155944712943e-01 
2.250000e-01  9.670406895749515e-01 
2.300000e-01  9.941516760688240e-01 
2.350000e-01  9.953842984404894e-01 
2.400000e-01  9.952182631359786e-01 
2.450000e-01  9.952561154043409e-01 
2.500000e-01  9.951763117614132e-01 
2.550000e-01  9.956319936502317e-01 
2.600000e-01  9.861102286806730e-01 
2.650000e-01  9.359740799176924e-01 
2.700000e-01  8.430409272964700e-01 
2.750000e-01  7.157340069408933e-01 
2.800000e-01  5.666522693009983e-01 
2.850000e-01  4.108269015070666e-01 
2.900000e-01  2.640320335466192e-01 
2.950000e-01  1.410461526810142e-01 
3.000000e-01  5.397641580467307e-02 
3.050000e-01  1.040278675620303e-02 
3.100000e-01  4.366624460970957e-03 
3.150000e-01  4.822870611597337e-03 
3.200000e-01  4.748897127098416e-03 
3.250000e-01  4.748587817664676e-03 
3.300000e-01  4.825064077263637e-03 
3.350000e-01  4.355620938883200e-03 
3.400000e-01  1.286567063362703e-02 
3.450000e-01  6.129422974078397e-02 
3.500000e-01  1.527213751306965e-01 
3.550000e-01  2.789344980954492e-01 
3.600000e-01  4.274588853052151e-01 
3.650000e-01  5.833249677788495e-01 
3.700000e-01  7.307542000666880e-01 
3.750000e-01  8.548980205384753e-01 
3.800000e-01  9.435171966419332e-01 
3.850000e-01  9.888025683404963e-01 
3.900000e-01  9.956440022434738e-01 
3.950000e-01  9.951749797692326e-01 
4.000000e-01  9.952531462165841e-01 
4.050000e-01  9.952410952930768e-01 
4.100000e-01  9.952430117923829e-01 
4.150000e-01  9.952427426499328e-01 
4.200000e-01  9.952428207752653e-01 
4.250000e-01  9.952428066207561e-01 
4.300000e-01  9.952430503521339e-01 
4.350000e-01  9.952416949309087e-01 
4.400000e-01  9.952505581891702e-01 
4.450000e-01  9.951935825917708e-01 
4.500000e-01  9.955415557179970e-01 
4.550000e-01  9.921717175477558e-01 
4.600000e-01  9.557889910973053e-01 
4.650000e-01  8.753920067829728e-01 
4.700000e-01  7.575092399976494e-01 
4.750000e-01  6.136626339977358e-01 
4.800000e-01  4.583050483930451e-01 
4.850000e-01  3.071598882384324e-01 
4.900000e-01  1.754867478854377e-01 
4.950000e-01  7.637894213244195e-02 
5.000000e-01  1.908665616209848e-02 
5.050000e-01  4.553785016243256e-03 
5.100000e-01  4.791042408063708e-03 
5.150000e-01  4.752734253398840e-03 
5.200000e-01  4.758645101528853e-03 
5.250000e-01  4.757680525749431e-03 
5.300000e-01  4.757790190831614e-03 
5.350000e-01  4.757733390697712e-03 
5.400000e-01  4.757694397591977e-03 
5.450000e-01  4.757705071704437e-03 
5.500000e-01  4.757372187781665e-03 
5.550000e-01  4.759243505006941e-03 
5.600000e-01  4.747020948167675e-03 
5.650000e-01  4.825848192659460e-03 
5.700000e-01  4.352672244156718e-03 
5.750000e-01  1.181575833607336e-02 
5.800000e-01  5.832765612070413e-02 
5.850000e-01  1.480480159081707e-01 
5.900000e-01  2.730077865803196e-01 
5.950000e-01  4.208748470094706e-01 
6.000000e-01  5.767522921639827e-01 
6.050000e-01  7.248603653128917e-01 
6.100000e-01  8.502755250861019e-01 
6.150000e-01  9.406138131623637e-01 
6.200000e-01  9.878173761504950e-01 
6.250000e-01  9.956475361550329e-01 
6.300000e-01  9.951741619250851e-01 
6.350000e-01  9.952530399773407e-01 
6.400000e-01  9.952411564059146e-01 
6.450000e-01  9.952411928544679e-01 
6.500000e-01  9.952529757427289e-01 
6.550000e-01  9.951749815367323e-01 
6.600000e-01  9.956435785651127e-01 
6.650000e-01  9.888446997406302e-01 
6.700000e-01  9.436463082305877e-01 
6.750000e-01  8.551056292509629e-01 
6.800000e-01  7.310202890160602e-01 
6.850000e-01  5.836228320796999e-01 
6.900000e-01  4.277582929907121e-01 
6.950000e-01  2.792050342072894e-01 
7.000000e-01  1.529357985838516e-01 
7.050000e-01  6.143165207401463e-02 
7.100000e-01  1.291602279297227e-02 
7.150000e-01  4.356016050320190e-03 
7.200000e-01  4.825324878907647e-03 
7.250000e-01  4.747140469683277e-03 
7.300000e-01  4.759228986686092e-03 
7.350000e-01  4.757275047703527e-03 
7.400000e-01  4.757952967424535e-03 
7.450000e-01  4.755431293325768e-03 
7.500000e-01  4.771297232072576e-03 
7.550000e-01  4.671100468051963e-03 
7.600000e-01  5.374815229809626e-03 
7.650000e-01  2.910218372712164e-02 
7.700000e-01  9.692879901688910e-02 
7.750000e-01  2.047913554758775e-01 
7.800000e-01  3.423469821303607e-01 
7.850000e-01  4.958415453260780e-01 
7.900000e-01  6.497556795846080e-01 
7.950000e-01  7.885238428919218e-01 
8.000000e-01  8.982566198544003e-01 
8.050000e-01  9.683866756454720e-01 
8.100000e-01  9.943275922003583e-01 
8.150000e-01  9.953645708388070e-01 
8.200000e-01  9.952229497104651e-01 
8.250000e-01  9.952457101821619e-01 
8.300000e-01  9.952404070539863e-01 
8.350000e-01  9.952520812299697e-01 
8.400000e-01  9.951797122558027e-01 
8.450000e-01  9.956153805426755e-01 
8.500000e-01  9.852846996720497e-01 
8.550000e-01  9.338646728171389e-01 
8.600000e-01  8.398078642009515e-01 
8.650000e-01  7.116922166333164e-01 
8.700000e-01  5.622084394381968e-01 
8.750000e-01  4.064321921185948e-01 
8.800000e-01  2.601322903503154e-01 
8.850000e-01  1.380325724366612e-01 
8.900000e-01  5.213899761153375e-02 
8.950000e-01  9.854240856364988e-03 
9.000000e-01  4.378217396515493e-03 
9.050000e-01  4.820825129650764e-03 
9.100000e-01  4.747920890708928e-03 
9.150000e-01  4.755861422555003e-03 
9.200000e-01  4.776300317478285e-03 
9.250000e-01  4.637232601838745e-03 
9.300000e-01  5.656112394870683e-03 
9.350000e-01  3.148464046046567e-02 
9.400000e-01  1.014993391720915e-01 
9.450000e-01  2.111389147158608e-01 
9.500000e-01  3.498471113978948e-01 
9.550000e-01  5.037411705142334e-01 
9.600000e-01  6.572577399745064e-01 
9.650000e-01  7.948750171512927e-01 
9.700000e-01  9.028319715318639e-01 
9.750000e-01  9.707743307306723e-01 
9.800000e-01  9.946114637331438e-01 
9.850000e-01  9.953306368583871e-01 
9.900000e-01  9.952284371874156e-01 
9.950000e-01  9.952446817058278e-01 
1.000000e+00  9.952417656390620e-01 
