TITLE ="t=0.000128" 
VARIABLES = "x"                 "phi" 
ZONE I=201, ZONETYPE=Ordered, DATAPACKING=POINT
0.000000e+00  5.195195410467054e-01 
5.000000e-03  5.187610607871767e-01 
1.000000e-02  5.166571319854215e-01 
1.500000e-02  5.135841773311971e-01 
2.000000e-02  5.100543263803735e-01 
2.500000e-02  5.069962679207393e-01 
3.000000e-02  5.058033033351301e-01 
3.500000e-02  5.074389634014258e-01 
4.000000e-02  5.110533214080846e-01 
4.500000e-02  5.135140355544001e-01 
5.000000e-02  5.108113440860140e-01 
5.500000e-02  5.010464679119911e-01 
6.000000e-02  4.869854809932004e-01 
6.500000e-02  4.754653213632517e-01 
7.000000e-02  4.734261739337237e-01 
7.500000e-02  4.834798107273284e-01 
8.000000e-02  5.020684646965057e-01 
8.500000e-02  5.212609612300051e-01 
9.000000e-02  5.331849554519313e-01 
9.500000e-02  5.342910726806794e-01 
1.000000e-01  5.263677189169714e-01 
1.050000e-01  5.140785958923263e-01 
1.100000e-01  5.018741887546667e-01 
1.150000e-01  4.926253024192654e-01 
1.200000e-01  4.878408727230066e-01 
1.250000e-01  4.880952987010364e-01 
1.300000e-01  4.928831264763218e-01 
1.350000e-01  5.002334466606605e-01 
1.400000e-01  5.067862487797845e-01 
1.450000e-01  5.089460968638585e-01 
1.500000e-01  5.048858402095006e-01 
1.550000e-01  4.958847048835995e-01 
1.600000e-01  4.857732338210879e-01 
1.650000e-01  4.790196909280096e-01 
1.700000e-01  4.786555678649242e-01 
1.750000e-01  4.849594557043718e-01 
1.800000e-01  4.955796815658747e-01 
1.850000e-01  5.068482052840608e-01 
1.900000e-01  5.152817917148719e-01 
1.950000e-01  5.187065998747685e-01 
2.000000e-01  5.168488142021846e-01 
2.050000e-01  5.112802036025260e-01 
2.100000e-01  5.047664938333122e-01 
2.150000e-01  5.002278139620467e-01 
2.200000e-01  4.994967888390721e-01 
2.250000e-01  5.023261126310020e-01 
2.300000e-01  5.064236498913265e-01 
2.350000e-01  5.089709836391539e-01 
2.400000e-01  5.088116739396209e-01 
2.450000e-01  5.073188045326346e-01 
2.500000e-01  5.070000463520875e-01 
2.550000e-01  5.090852918813844e-01 
2.600000e-01  5.120787615657993e-01 
2.650000e-01  5.126601405122451e-01 
2.700000e-01  5.087448928971886e-01 
2.750000e-01  5.019793266605422e-01 
2.800000e-01  4.967900004208157e-01 
2.850000e-01  4.966348228429766e-01 
2.900000e-01  5.008978548251796e-01 
2.950000e-01  5.052370944660503e-01 
3.000000e-01  5.051967412954130e-01 
3.050000e-01  4.998126123779971e-01 
3.100000e-01  4.919175763704783e-01 
3.150000e-01  4.851563934671883e-01 
3.200000e-01  4.807460392376873e-01 
3.250000e-01  4.771687537147602e-01 
3.300000e-01  4.731127715174724e-01 
3.350000e-01  4.704459601955684e-01 
3.400000e-01  4.735643387674022e-01 
3.450000e-01  4.851147064662151e-01 
3.500000e-01  5.021526797206627e-01 
3.550000e-01  5.169955681739220e-01 
3.600000e-01  5.227177161159139e-01 
3.650000e-01  5.184692320965798e-01 
3.700000e-01  5.096318567427868e-01 
3.750000e-01  5.030016486459395e-01 
3.800000e-01  5.017447627979007e-01 
3.850000e-01  5.041343840475455e-01 
3.900000e-01  5.063033038386623e-01 
3.950000e-01  5.060441516467326e-01 
4.000000e-01  5.043501322449948e-01 
4.050000e-01  5.038297724730922e-01 
4.100000e-01  5.058873601026613e-01 
4.150000e-01  5.093455616348984e-01 
4.200000e-01  5.115038324354401e-01 
4.250000e-01  5.103237532371694e-01 
4.300000e-01  5.059444750973735e-01 
4.350000e-01  5.006083048872548e-01 
4.400000e-01  4.971716011324855e-01 
4.450000e-01  4.972693854665923e-01 
4.500000e-01  5.002916797098577e-01 
4.550000e-01  5.038902113867941e-01 
4.600000e-01  5.058051567135596e-01 
4.650000e-01  5.053506690776137e-01 
4.700000e-01  5.033352267053245e-01 
4.750000e-01  5.009748766933541e-01 
4.800000e-01  4.990299008027765e-01 
4.850000e-01  4.977577344828685e-01 
4.900000e-01  4.973366639616573e-01 
4.950000e-01  4.980891718307118e-01 
5.000000e-01  5.001798711574394e-01 
5.050000e-01  5.029187477765487e-01 
5.100000e-01  5.044319387858267e-01 
5.150000e-01  5.025014811209291e-01 
5.200000e-01  4.963372261468323e-01 
5.250000e-01  4.877976476127309e-01 
5.300000e-01  4.805413329537900e-01 
5.350000e-01  4.776847202722389e-01 
5.400000e-01  4.799304834596528e-01 
5.450000e-01  4.851997018371295e-01 
5.500000e-01  4.899166279805886e-01 
5.550000e-01  4.912898663071250e-01 
5.600000e-01  4.889917906505085e-01 
5.650000e-01  4.851037423121309e-01 
5.700000e-01  4.825475275727383e-01 
5.750000e-01  4.833487364844248e-01 
5.800000e-01  4.878722162017796e-01 
5.850000e-01  4.949415629176931e-01 
5.900000e-01  5.022728902453698e-01 
5.950000e-01  5.071154586908183e-01 
6.000000e-01  5.073671712941682e-01 
6.050000e-01  5.028818671568078e-01 
6.100000e-01  4.959333692627189e-01 
6.150000e-01  4.902681443144975e-01 
6.200000e-01  4.891523398276823e-01 
6.250000e-01  4.933834082569153e-01 
6.300000e-01  5.006851408571902e-01 
6.350000e-01  5.072429162118656e-01 
6.400000e-01  5.104207573976474e-01 
6.450000e-01  5.104540440715372e-01 
6.500000e-01  5.096134362471572e-01 
6.550000e-01  5.096966032946300e-01 
6.600000e-01  5.101885556240274e-01 
6.650000e-01  5.086826396872693e-01 
6.700000e-01  5.031772913302240e-01 
6.750000e-01  4.942180075156624e-01 
6.800000e-01  4.849982976538061e-01 
6.850000e-01  4.792408913747391e-01 
6.900000e-01  4.786238236630526e-01 
6.950000e-01  4.819005773216399e-01 
7.000000e-01  4.859919029713536e-01 
7.050000e-01  4.877774360715992e-01 
7.100000e-01  4.856452752240816e-01 
7.150000e-01  4.802898082486513e-01 
7.200000e-01  4.743785731290954e-01 
7.250000e-01  4.712542959604902e-01 
7.300000e-01  4.732144674020464e-01 
7.350000e-01  4.800426457380133e-01 
7.400000e-01  4.888037862664385e-01 
7.450000e-01  4.953844230708063e-01 
7.500000e-01  4.968408263130539e-01 
7.550000e-01  4.931054286065900e-01 
7.600000e-01  4.869665157691423e-01 
7.650000e-01  4.820023108139883e-01 
7.700000e-01  4.800962015900674e-01 
7.750000e-01  4.808373251528932e-01 
7.800000e-01  4.829140740799728e-01 
7.850000e-01  4.856565119541968e-01 
7.900000e-01  4.892193835507606e-01 
7.950000e-01  4.936098571656562e-01 
8.000000e-01  4.979618922681717e-01 
8.050000e-01  5.009587064235692e-01 
8.100000e-01  5.019385486838251e-01 
8.150000e-01  5.016174820627074e-01 
8.200000e-01  5.016890578642321e-01 
8.250000e-01  5.035272000743951e-01 
8.300000e-01  5.071375259541185e-01 
8.350000e-01  5.114481689032131e-01 
8.400000e-01  5.155153787071266e-01 
8.450000e-01  5.192161184001868e-01 
8.500000e-01  5.228080372033790e-01 
8.550000e-01  5.258368888993650e-01 
8.600000e-01  5.265579465679064e-01 
8.650000e-01  5.227678203290046e-01 
8.700000e-01  5.136323778930763e-01 
8.750000e-01  5.010985963688490e-01 
8.800000e-01  4.895601951503017e-01 
8.850000e-01  4.835473305440049e-01 
8.900000e-01  4.848703183984069e-01 
8.950000e-01  4.914316147325063e-01 
9.000000e-01  4.986589975644946e-01 
9.050000e-01  5.023947961880034e-01 
9.100000e-01  5.012316940190641e-01 
9.150000e-01  4.970923857330690e-01 
9.200000e-01  4.938266057509131e-01 
9.250000e-01  4.947982987594382e-01 
9.300000e-01  5.009974603168721e-01 
9.350000e-01  5.105871065991774e-01 
9.400000e-01  5.198891790257004e-01 
9.450000e-01  5.253011847867146e-01 
9.500000e-01  5.251119960907070e-01 
9.550000e-01  5.203815172022800e-01 
9.600000e-01  5.144562591696087e-01 
9.650000e-01  5.109881790951314e-01 
9.700000e-01  5.114208683050364e-01 
9.750000e-01  5.139480862800107e-01 
9.800000e-01  5.150312556309553e-01 
9.850000e-01  5.122309239408630e-01 
9.900000e-01  5.061417805875832e-01 
9.950000e-01  5.000203612347290e-01 
1.000000e+00  4.974719056222044e-01 
