TITLE ="t=73.288398" 
VARIABLES = "x"                 "phi" 
ZONE I=201, ZONETYPE=Ordered, DATAPACKING=POINT
0.000000e+00  9.958219224339505e-01 
5.000000e-03  9.926667138216629e-01 
1.000000e-02  9.584875077530761e-01 
1.500000e-02  8.801904516607716e-01 
2.000000e-02  7.639557320559601e-01 
2.500000e-02  6.211153484744981e-01 
3.000000e-02  4.660110987946459e-01 
3.500000e-02  3.143389435588305e-01 
4.000000e-02  1.814169803961038e-01 
4.500000e-02  8.047960156339987e-02 
5.000000e-02  2.101322690982621e-02 
5.500000e-02  4.794217712634504e-03 
6.000000e-02  2.381931047989778e-02 
6.500000e-02  8.646958794689677e-02 
7.000000e-02  1.900699278354501e-01 
7.500000e-02  3.248000997852661e-01 
8.000000e-02  4.772225061424024e-01 
8.500000e-02  6.319361575737782e-01 
9.000000e-02  7.732878472843445e-01 
9.500000e-02  8.871008895201625e-01 
1.000000e-01  9.623254937678495e-01 
1.050000e-01  9.933294322154915e-01 
1.100000e-01  9.958932808436884e-01 
1.150000e-01  9.834627898088850e-01 
1.200000e-01  9.293115872011860e-01 
1.250000e-01  8.328846923678994e-01 
1.300000e-01  7.030783248381597e-01 
1.350000e-01  5.527746646244728e-01 
1.400000e-01  3.971401018919828e-01 
1.450000e-01  2.519281135782309e-01 
1.500000e-01  1.317423762324042e-01 
1.550000e-01  4.836961814497241e-02 
1.600000e-01  8.821224760379663e-03 
1.650000e-01  4.408085205594311e-03 
1.700000e-01  4.830240364829741e-03 
1.750000e-01  4.650482575497222e-03 
1.800000e-01  5.465924075423056e-03 
1.850000e-01  2.988857976792501e-02 
1.900000e-01  9.844620871202518e-02 
1.950000e-01  2.069040150178340e-01 
2.000000e-01  3.448472793177617e-01 
2.050000e-01  4.984785241717618e-01 
2.100000e-01  6.522632967709060e-01 
2.150000e-01  7.906502626311898e-01 
2.200000e-01  8.997924958209449e-01 
2.250000e-01  9.691932819683345e-01 
2.300000e-01  9.944273418283838e-01 
2.350000e-01  9.953531062784418e-01 
2.400000e-01  9.952236826938677e-01 
2.450000e-01  9.952517663397943e-01 
2.500000e-01  9.951981823159661e-01 
2.550000e-01  9.955075590696222e-01 
2.600000e-01  9.821598063071810e-01 
2.650000e-01  9.264174548204025e-01 
2.700000e-01  8.286294127911898e-01 
2.750000e-01  6.978736806870846e-01 
2.800000e-01  5.471399356393015e-01 
2.850000e-01  3.916422082833130e-01 
2.900000e-01  2.471191183800160e-01 
2.950000e-01  1.280982676922031e-01 
3.000000e-01  4.623265534089588e-02 
3.050000e-01  8.292465965786632e-03 
3.100000e-01  4.434317502533008e-03 
3.150000e-01  4.810609248111747e-03 
3.200000e-01  4.750614465079376e-03 
3.250000e-01  4.748672321908685e-03 
3.300000e-01  4.822536254274303e-03 
3.350000e-01  4.370028753340439e-03 
3.400000e-01  1.400105815789959e-02 
3.450000e-01  6.431495204082179e-02 
3.500000e-01  1.574042328274338e-01 
3.550000e-01  2.848240054168789e-01 
3.600000e-01  4.339624848218238e-01 
3.650000e-01  5.897821887562144e-01 
3.700000e-01  7.365095802954541e-01 
3.750000e-01  8.593735993673167e-01 
3.800000e-01  9.462809622329993e-01 
3.850000e-01  9.896759375910635e-01 
3.900000e-01  9.956320517741482e-01 
3.950000e-01  9.951772762953086e-01 
4.000000e-01  9.952529100185037e-01 
4.050000e-01  9.952412347039380e-01 
4.100000e-01  9.952430809233838e-01 
4.150000e-01  9.952428113819484e-01 
4.200000e-01  9.952428774513384e-01 
4.250000e-01  9.952428579044671e-01 
4.300000e-01  9.952430641922149e-01 
4.350000e-01  9.952418749283677e-01 
4.400000e-01  9.952496036251235e-01 
4.450000e-01  9.951999219323991e-01 
4.500000e-01  9.955051029126986e-01 
4.550000e-01  9.927556665026347e-01 
4.600000e-01  9.585825568324937e-01 
4.650000e-01  8.802935223686038e-01 
4.700000e-01  7.640574927669134e-01 
4.750000e-01  6.212059769153455e-01 
4.800000e-01  4.660817785556705e-01 
4.850000e-01  3.143829117906560e-01 
4.900000e-01  1.814302941058842e-01 
4.950000e-01  8.046156509126737e-02 
5.000000e-01  2.096602079227229e-02 
5.050000e-01  4.663943909253942e-03 
5.100000e-01  4.772820768772374e-03 
5.150000e-01  4.755512042512060e-03 
5.200000e-01  4.758155527920692e-03 
5.250000e-01  4.757689293933313e-03 
5.300000e-01  4.757708657691656e-03 
5.350000e-01  4.757653433072424e-03 
5.400000e-01  4.757601897164073e-03 
5.450000e-01  4.757600761136982e-03 
5.500000e-01  4.757265395601504e-03 
5.550000e-01  4.759072196132814e-03 
5.600000e-01  4.747182244075755e-03 
5.650000e-01  4.823749260246183e-03 
5.700000e-01  4.363266354980540e-03 
5.750000e-01  1.060128864565198e-02 
5.800000e-01  5.461834829121644e-02 
5.850000e-01  1.420908187290550e-01 
5.900000e-01  2.653787050052861e-01 
5.950000e-01  4.123403909842758e-01 
6.000000e-01  5.681789696638334e-01 
6.050000e-01  7.171188839575563e-01 
6.100000e-01  8.441446342605248e-01 
6.150000e-01  9.366891985147939e-01 
6.200000e-01  9.863833340324244e-01 
6.250000e-01  9.956360923361743e-01 
6.300000e-01  9.951761056496592e-01 
6.350000e-01  9.952526421472648e-01 
6.400000e-01  9.952411457387730e-01 
6.450000e-01  9.952412019060065e-01 
6.500000e-01  9.952527313530137e-01 
6.550000e-01  9.951766838472476e-01 
6.600000e-01  9.956344834694646e-01 
6.650000e-01  9.895366024770286e-01 
6.700000e-01  9.458263934343468e-01 
6.750000e-01  8.586325332332915e-01 
6.800000e-01  7.355535240237734e-01 
6.850000e-01  5.887071476710934e-01 
6.900000e-01  4.328775746733826e-01 
6.950000e-01  2.838393833983007e-01 
7.000000e-01  1.566189352039283e-01 
7.050000e-01  6.380534724646451e-02 
7.100000e-01  1.380523894118216e-02 
7.150000e-01  4.366783443628395e-03 
7.200000e-01  4.823448012912339e-03 
7.250000e-01  4.747484589188344e-03 
7.300000e-01  4.759213951881301e-03 
7.350000e-01  4.757281461267238e-03 
7.400000e-01  4.758021534513033e-03 
7.450000e-01  4.754913576057635e-03 
7.500000e-01  4.774422296459466e-03 
7.550000e-01  4.651463958204496e-03 
7.600000e-01  5.534917361755131e-03 
7.650000e-01  3.049368952199485e-02 
7.700000e-01  9.960900994930287e-02 
7.750000e-01  2.085197042078558e-01 
7.800000e-01  3.467567918226879e-01 
7.850000e-01  5.004900704017363e-01 
7.900000e-01  6.541738926525611e-01 
7.950000e-01  7.922680564926046e-01 
8.000000e-01  9.009583133221937e-01 
8.050000e-01  9.698021575307640e-01 
8.100000e-01  9.945000753823914e-01 
8.150000e-01  9.953442924249890e-01 
8.200000e-01  9.952261403767232e-01 
8.250000e-01  9.952450473021779e-01 
8.300000e-01  9.952406516423324e-01 
8.350000e-01  9.952501618632106e-01 
8.400000e-01  9.951912610620960e-01 
8.450000e-01  9.955495889687289e-01 
8.500000e-01  9.831662674246958e-01 
8.550000e-01  9.287392860351384e-01 
8.600000e-01  8.320786035001461e-01 
8.650000e-01  7.021132368372811e-01 
8.700000e-01  5.517434592492079e-01 
8.750000e-01  3.961429986516167e-01 
8.800000e-01  2.510616272155162e-01 
8.850000e-01  1.310886299179808e-01 
8.900000e-01  4.798642499831856e-02 
8.950000e-01  8.723920782056275e-03 
9.000000e-01  4.415035273877922e-03 
9.050000e-01  4.814078912423405e-03 
9.100000e-01  4.748899788653386e-03 
9.150000e-01  4.755101948552607e-03 
9.200000e-01  4.779445268615587e-03 
9.250000e-01  4.617532698252207e-03 
9.300000e-01  5.832732702696663e-03 
9.350000e-01  3.284502975675795e-02 
9.400000e-01  1.040702742419615e-01 
9.450000e-01  2.146872124303885e-01 
9.500000e-01  3.540231721831718e-01 
9.550000e-01  5.081254678508579e-01 
9.600000e-01  6.614078657742415e-01 
9.650000e-01  7.983743759105237e-01 
9.700000e-01  9.053367041908622e-01 
9.750000e-01  9.720609695682366e-01 
9.800000e-01  9.947501010621741e-01 
9.850000e-01  9.953128060263835e-01 
9.900000e-01  9.952312147123172e-01 
9.950000e-01  9.952441469417709e-01 
1.000000e+00  9.952418245360567e-01 
