TITLE ="t=0.000512" 
VARIABLES = "x"                 "phi" 
ZONE I=201, ZONETYPE=Ordered, DATAPACKING=POINT
0.000000e+00  5.186585551600772e-01 
5.000000e-03  5.177635649699804e-01 
1.000000e-02  5.154868495414375e-01 
1.500000e-02  5.128352000590111e-01 
2.000000e-02  5.108870482306939e-01 
2.500000e-02  5.102361297715095e-01 
3.000000e-02  5.106590202255564e-01 
3.500000e-02  5.111476235616149e-01 
4.000000e-02  5.103203878255240e-01 
4.500000e-02  5.070806717805857e-01 
5.000000e-02  5.012634925034357e-01 
5.500000e-02  4.939709670190078e-01 
6.000000e-02  4.873728989717642e-01 
6.500000e-02  4.839611082337094e-01 
7.000000e-02  4.855365382026240e-01 
7.500000e-02  4.923742527945576e-01 
8.000000e-02  5.029296073367949e-01 
8.500000e-02  5.142328812351596e-01 
9.000000e-02  5.228828273445700e-01 
9.500000e-02  5.262865836864949e-01 
1.000000e-01  5.236164046562822e-01 
1.050000e-01  5.160671924583725e-01 
1.100000e-01  5.063484473510159e-01 
1.150000e-01  4.976499919958942e-01 
1.200000e-01  4.924682424253422e-01 
1.250000e-01  4.917302502522251e-01 
1.300000e-01  4.945696436124442e-01 
1.350000e-01  4.988280682483288e-01 
1.400000e-01  5.020222606099248e-01 
1.450000e-01  5.023534854613319e-01 
1.500000e-01  4.993765450867851e-01 
1.550000e-01  4.941057126733488e-01 
1.600000e-01  4.885624888119438e-01 
1.650000e-01  4.849778294177760e-01 
1.700000e-01  4.849498079911505e-01 
1.750000e-01  4.888453773840007e-01 
1.800000e-01  4.956659323515241e-01 
1.850000e-01  5.034401789983708e-01 
1.900000e-01  5.099877061808413e-01 
1.950000e-01  5.137281281973114e-01 
2.000000e-01  5.141865320841906e-01 
2.050000e-01  5.119985791670211e-01 
2.100000e-01  5.084863893282004e-01 
2.150000e-01  5.050788357000616e-01 
2.200000e-01  5.028467084876026e-01 
2.250000e-01  5.022758463509654e-01 
2.300000e-01  5.032677492030997e-01 
2.350000e-01  5.052976512179935e-01 
2.400000e-01  5.076414186162528e-01 
2.450000e-01  5.095954797070043e-01 
2.500000e-01  5.106529099272744e-01 
2.550000e-01  5.106088130862931e-01 
2.600000e-01  5.095590718892833e-01 
2.650000e-01  5.078086609584833e-01 
2.700000e-01  5.057688550285215e-01 
2.750000e-01  5.038806165520715e-01 
2.800000e-01  5.025212212036835e-01 
2.850000e-01  5.018640466378683e-01 
2.900000e-01  5.017354423742351e-01 
2.950000e-01  5.015584040398312e-01 
3.000000e-01  5.004702445106902e-01 
3.050000e-01  4.976451442519842e-01 
3.100000e-01  4.927376290753916e-01 
3.150000e-01  4.862376074439241e-01 
3.200000e-01  4.795008266037473e-01 
3.250000e-01  4.743681282036125e-01 
3.300000e-01  4.725254271622076e-01 
3.350000e-01  4.748893749621216e-01 
3.400000e-01  4.812547240144621e-01 
3.450000e-01  4.903084646601044e-01 
3.500000e-01  5.000081876662054e-01 
3.550000e-01  5.082256293757436e-01 
3.600000e-01  5.134287049527432e-01 
3.650000e-01  5.151027282832805e-01 
3.700000e-01  5.137423900961867e-01 
3.750000e-01  5.105149402389266e-01 
3.800000e-01  5.068272583654507e-01 
3.850000e-01  5.039369361495682e-01 
3.900000e-01  5.026392304707038e-01 
3.950000e-01  5.030776020695336e-01 
4.000000e-01  5.047623010124641e-01 
4.050000e-01  5.068197507775986e-01 
4.100000e-01  5.083710439653187e-01 
4.150000e-01  5.088594955896684e-01 
4.200000e-01  5.081791657344066e-01 
4.250000e-01  5.065898221723274e-01 
4.300000e-01  5.045426132253893e-01 
4.350000e-01  5.025496884942683e-01 
4.400000e-01  5.011042333637790e-01 
4.450000e-01  5.005630612301808e-01 
4.500000e-01  5.009759480219487e-01 
4.550000e-01  5.019912396287293e-01 
4.600000e-01  5.029725732495370e-01 
4.650000e-01  5.032981259566692e-01 
4.700000e-01  5.026764400348598e-01 
4.750000e-01  5.013136759447583e-01 
4.800000e-01  4.998387149739725e-01 
4.850000e-01  4.989891969779915e-01 
4.900000e-01  4.991952340740653e-01 
4.950000e-01  5.002955146501733e-01 
5.000000e-01  5.015613870073680e-01 
5.050000e-01  5.020137052707885e-01 
5.100000e-01  5.008650770647091e-01 
5.150000e-01  4.978938728435264e-01 
5.200000e-01  4.935932549378699e-01 
5.250000e-01  4.890035133673349e-01 
5.300000e-01  4.852773682191702e-01 
5.350000e-01  4.831949611879384e-01 
5.400000e-01  4.828712914427375e-01 
5.450000e-01  4.837697461147737e-01 
5.500000e-01  4.850025736088103e-01 
5.550000e-01  4.858022969053510e-01 
5.600000e-01  4.859437616594995e-01 
5.650000e-01  4.858671982401645e-01 
5.700000e-01  4.864050130250022e-01 
5.750000e-01  4.882668583565531e-01 
5.800000e-01  4.915805952860937e-01 
5.850000e-01  4.957315588809743e-01 
5.900000e-01  4.995781186708746e-01 
5.950000e-01  5.019506619938829e-01 
6.000000e-01  5.022010349557940e-01 
6.050000e-01  5.005184688612972e-01 
6.100000e-01  4.978480243713012e-01 
6.150000e-01  4.954841408871549e-01 
6.200000e-01  4.945672123195006e-01 
6.250000e-01  4.956937590688931e-01 
6.300000e-01  4.987559129908014e-01 
6.350000e-01  5.030345897110395e-01 
6.400000e-01  5.074767801719995e-01 
6.450000e-01  5.110155823206708e-01 
6.500000e-01  5.128095041870220e-01 
6.550000e-01  5.123722274866611e-01 
6.600000e-01  5.096333604815256e-01 
6.650000e-01  5.049613732937952e-01 
6.700000e-01  4.991313612182384e-01 
6.750000e-01  4.931871105030245e-01 
6.800000e-01  4.881679018641142e-01 
6.850000e-01  4.847633214507810e-01 
6.900000e-01  4.830631863600812e-01 
6.950000e-01  4.825588416088838e-01 
7.000000e-01  4.824076154649297e-01 
7.050000e-01  4.818353059924766e-01 
7.100000e-01  4.805097333865796e-01 
7.150000e-01  4.787257560180052e-01 
7.200000e-01  4.772917467972492e-01 
7.250000e-01  4.771376800831799e-01 
7.300000e-01  4.788202521458788e-01 
7.350000e-01  4.821720951753320e-01 
7.400000e-01  4.862808638099597e-01 
7.450000e-01  4.898228950592067e-01 
7.500000e-01  4.916103184395191e-01 
7.550000e-01  4.911132119241874e-01 
7.600000e-01  4.887041222675784e-01 
7.650000e-01  4.854844619344910e-01 
7.700000e-01  4.827936059076662e-01 
7.750000e-01  4.816840530203865e-01 
7.800000e-01  4.825998908445505e-01 
7.850000e-01  4.853233654164700e-01 
7.900000e-01  4.891431537229795e-01 
7.950000e-01  4.931626998338878e-01 
8.000000e-01  4.966327345436808e-01 
8.050000e-01  4.991746966223333e-01 
8.100000e-01  5.008266921304790e-01 
8.150000e-01  5.019532168098226e-01 
8.200000e-01  5.031019838891247e-01 
8.250000e-01  5.048495088344580e-01 
8.300000e-01  5.076354495159696e-01 
8.350000e-01  5.115865997498582e-01 
8.400000e-01  5.163607957363828e-01 
8.450000e-01  5.210907991355757e-01 
8.500000e-01  5.245322856930483e-01 
8.550000e-01  5.254435973404541e-01 
8.600000e-01  5.230741209313484e-01 
8.650000e-01  5.175375566224144e-01 
8.700000e-01  5.098798402148498e-01 
8.750000e-01  5.017885809184294e-01 
8.800000e-01  4.950394765935490e-01 
8.850000e-01  4.908832435937054e-01 
8.900000e-01  4.896308783379883e-01 
8.950000e-01  4.906427664999348e-01 
9.000000e-01  4.927348598120406e-01 
9.050000e-01  4.947913620824709e-01 
9.100000e-01  4.962778300551675e-01 
9.150000e-01  4.974146411073744e-01 
9.200000e-01  4.989380511789702e-01 
9.250000e-01  5.015856721635368e-01 
9.300000e-01  5.055976323893234e-01 
9.350000e-01  5.105115482647649e-01 
9.400000e-01  5.153460334396469e-01 
9.450000e-01  5.190408944603397e-01 
9.500000e-01  5.209028908948931e-01 
9.550000e-01  5.208438080733130e-01 
9.600000e-01  5.193198394249844e-01 
9.650000e-01  5.170218628714107e-01 
9.700000e-01  5.145073798053920e-01 
9.750000e-01  5.120161753071901e-01 
9.800000e-01  5.095679241797774e-01 
9.850000e-01  5.072019427242399e-01 
9.900000e-01  5.051275671713767e-01 
9.950000e-01  5.036801128670424e-01 
1.000000e+00  5.031585066789902e-01 
