TITLE ="t=663.288398" 
VARIABLES = "x"                 "phi" 
ZONE I=201, ZONETYPE=Ordered, DATAPACKING=POINT
0.000000e+00  9.961847378380077e-01 
5.000000e-03  9.899090358025510e-01 
1.000000e-02  9.472943216224732e-01 
1.500000e-02  8.610948395945769e-01 
2.000000e-02  7.387652703084402e-01 
2.500000e-02  5.923383223201508e-01 
3.000000e-02  4.365520151211486e-01 
3.500000e-02  2.871762976703527e-01 
4.000000e-02  1.592748496507644e-01 
4.500000e-02  6.551389306849797e-02 
5.000000e-02  1.442895949647063e-02 
5.500000e-02  3.606075814893909e-03 
6.000000e-02  1.410784352865516e-02 
6.500000e-02  6.466645255359768e-02 
7.000000e-02  1.579661979009551e-01 
7.500000e-02  2.855346192108700e-01 
8.000000e-02  4.347432548861239e-01 
8.500000e-02  5.905469108836648e-01 
9.000000e-02  7.371737789123286e-01 
9.500000e-02  8.598637883606142e-01 
1.000000e-01  9.465431083443435e-01 
1.050000e-01  9.896849519505702e-01 
1.100000e-01  9.962198791524763e-01 
1.150000e-01  9.893718240553154e-01 
1.200000e-01  9.454912968954925e-01 
1.250000e-01  8.581421485039096e-01 
1.300000e-01  7.349508030896965e-01 
1.350000e-01  5.880484160175602e-01 
1.400000e-01  4.322255924527852e-01 
1.450000e-01  2.832563335421072e-01 
1.500000e-01  1.561595368777349e-01 
1.550000e-01  6.351047240347071e-02 
1.600000e-01  1.369329120468196e-02 
1.650000e-01  4.357767171836755e-03 
1.700000e-01  4.858178466323244e-03 
1.750000e-01  4.532318457160010e-03 
1.800000e-01  6.610988554904956e-03 
1.850000e-01  3.795351797384947e-02 
1.900000e-01  1.134966124933346e-01 
1.950000e-01  2.275655343013777e-01 
2.000000e-01  3.690811108740874e-01 
2.050000e-01  5.238485750421266e-01 
2.100000e-01  6.762088655983142e-01 
2.150000e-01  8.107678820201066e-01 
2.200000e-01  9.141072376366380e-01 
2.250000e-01  9.764388310594896e-01 
2.300000e-01  9.951501429586529e-01 
2.350000e-01  9.952565647351422e-01 
2.400000e-01  9.952383857557232e-01 
2.450000e-01  9.952531338478972e-01 
2.500000e-01  9.951742229000277e-01 
2.550000e-01  9.956458098123039e-01 
2.600000e-01  9.873501343429232e-01 
2.650000e-01  9.393009417195549e-01 
2.700000e-01  8.482104396829864e-01 
2.750000e-01  7.222435325719077e-01 
2.800000e-01  5.738468960677708e-01 
2.850000e-01  4.179759453033371e-01 
2.900000e-01  2.704097244390966e-01 
2.950000e-01  1.460118987771037e-01 
3.000000e-01  5.705060297303624e-02 
3.050000e-01  1.138488641082109e-02 
3.100000e-01  4.354653999739782e-03 
3.150000e-01  4.825161014337491e-03 
3.200000e-01  4.748639935998498e-03 
3.250000e-01  4.748663269308506e-03 
3.300000e-01  4.825254505516759e-03 
3.350000e-01  4.354676302758005e-03 
3.400000e-01  1.273029074928425e-02 
3.450000e-01  6.092194914641659e-02 
3.500000e-01  1.521390468617514e-01 
3.550000e-01  2.781986801321962e-01 
3.600000e-01  4.266435927755665e-01 
3.650000e-01  5.825130071125079e-01 
3.700000e-01  7.300280222455582e-01 
3.750000e-01  8.543306056076476e-01 
3.800000e-01  9.431634410412915e-01 
3.850000e-01  9.886861557144552e-01 
3.900000e-01  9.956449433810783e-01 
3.950000e-01  9.951747816924512e-01 
4.000000e-01  9.952531459682414e-01 
4.050000e-01  9.952410610964350e-01 
4.100000e-01  9.952429791110219e-01 
4.150000e-01  9.952427057943071e-01 
4.200000e-01  9.952427816352577e-01 
4.250000e-01  9.952427584654636e-01 
4.300000e-01  9.952430354396237e-01 
4.350000e-01  9.952414427445642e-01 
4.400000e-01  9.952517968964675e-01 
4.450000e-01  9.951850908306663e-01 
4.500000e-01  9.955892772640397e-01 
4.550000e-01  9.911692845916470e-01 
4.600000e-01  9.515957904987515e-01 
4.650000e-01  8.682041433044214e-01 
4.700000e-01  7.480091566464887e-01 
4.750000e-01  6.027987228267395e-01 
4.800000e-01  4.471763808171776e-01 
4.850000e-01  2.968942726503411e-01 
4.900000e-01  1.671164137612741e-01 
4.950000e-01  7.072184377105543e-02 
5.000000e-01  1.660413334264700e-02 
5.050000e-01  4.441771407730118e-03 
5.100000e-01  4.810290184019472e-03 
5.150000e-01  4.749738944914616e-03 
5.200000e-01  4.759093926293523e-03 
5.250000e-01  4.757606741159714e-03 
5.300000e-01  4.757814369938702e-03 
5.350000e-01  4.757758632828670e-03 
5.400000e-01  4.757735907699998e-03 
5.450000e-01  4.757760016316018e-03 
5.500000e-01  4.757443935811400e-03 
5.550000e-01  4.759312844909682e-03 
5.600000e-01  4.747209697012971e-03 
5.650000e-01  4.825366072418999e-03 
5.700000e-01  4.356041231305153e-03 
5.750000e-01  1.291646919133351e-02 
5.800000e-01  6.143275128817434e-02 
5.850000e-01  1.529374444659551e-01 
5.900000e-01  2.792070645883586e-01 
5.950000e-01  4.277605111950346e-01 
6.000000e-01  5.836250248601786e-01 
6.050000e-01  7.310222472556986e-01 
6.100000e-01  8.551071685252808e-01 
6.150000e-01  9.436472866935266e-01 
6.200000e-01  9.888450433132131e-01 
6.250000e-01  9.956435896562789e-01 
6.300000e-01  9.951750107921028e-01 
6.350000e-01  9.952530218268643e-01 
6.400000e-01  9.952412518941948e-01 
6.450000e-01  9.952412524242411e-01 
6.500000e-01  9.952530202896002e-01 
6.550000e-01  9.951750249022192e-01 
6.600000e-01  9.956435176560964e-01 
6.650000e-01  9.888528335867341e-01 
6.700000e-01  9.436711482567175e-01 
6.750000e-01  8.551455107813808e-01 
6.800000e-01  7.310713584080526e-01 
6.850000e-01  5.836799665944312e-01 
6.900000e-01  4.278157021122718e-01 
6.950000e-01  2.792568976287190e-01 
7.000000e-01  1.529769067509148e-01 
7.050000e-01  6.145801184344629e-02 
7.100000e-01  1.292570603982283e-02 
7.150000e-01  4.356110693872907e-03 
7.200000e-01  4.825340464058719e-03 
7.250000e-01  4.747191192779930e-03 
7.300000e-01  4.759289687250397e-03 
7.350000e-01  4.757380529554581e-03 
7.400000e-01  4.757900843558750e-03 
7.450000e-01  4.756513306410284e-03 
7.500000e-01  4.765220657810503e-03 
7.550000e-01  4.710026201903630e-03 
7.600000e-01  5.081446198935126e-03 
7.650000e-01  2.623795222219821e-02 
7.700000e-01  9.130458579286654e-02 
7.750000e-01  1.969065185829781e-01 
7.800000e-01  3.329758573372199e-01 
7.850000e-01  4.859247452791042e-01 
7.900000e-01  6.402940093645271e-01 
7.950000e-01  7.804681424157897e-01 
8.000000e-01  8.924012521370586e-01 
8.050000e-01  9.652648923715877e-01 
8.100000e-01  9.939015258203853e-01 
8.150000e-01  9.954099590814949e-01 
8.200000e-01  9.952156880673816e-01 
8.250000e-01  9.952470899824528e-01 
8.300000e-01  9.952403027473059e-01 
8.350000e-01  9.952531947458749e-01 
8.400000e-01  9.951742676071214e-01 
8.450000e-01  9.956468724923598e-01 
8.500000e-01  9.875541953134764e-01 
8.550000e-01  9.398694547246502e-01 
8.600000e-01  8.491026038543718e-01 
8.650000e-01  7.233726663929726e-01 
8.700000e-01  5.750994156556354e-01 
8.750000e-01  4.192246556130835e-01 
8.800000e-01  2.715278613539071e-01 
8.850000e-01  1.468871376823737e-01 
8.900000e-01  5.759829789382024e-02 
8.950000e-01  1.156801383520504e-02 
9.000000e-01  4.353536673467460e-03 
9.050000e-01  4.825542569171677e-03 
9.100000e-01  4.747333280870496e-03 
9.150000e-01  4.756595717560977e-03 
9.200000e-01  4.773356148260080e-03 
9.250000e-01  4.656125228188681e-03 
9.300000e-01  5.496125363891479e-03 
9.350000e-01  3.016614380763148e-02 
9.400000e-01  9.898109798722113e-02 
9.450000e-01  2.076479903502633e-01 
9.500000e-01  3.457270798110834e-01 
9.550000e-01  4.994057762433209e-01 
9.600000e-01  6.531444250926410e-01 
9.650000e-01  7.913967739063478e-01 
9.700000e-01  9.003309031616690e-01 
9.750000e-01  9.694750025285827e-01 
9.800000e-01  9.944613743330253e-01 
9.850000e-01  9.953490138189409e-01 
9.900000e-01  9.952255520813520e-01 
9.950000e-01  9.952452335802181e-01 
1.000000e+00  9.952417020107279e-01 
