TITLE ="t=183.288398" 
VARIABLES = "x"                 "phi" 
ZONE I=201, ZONETYPE=Ordered, DATAPACKING=POINT
0.000000e+00  9.958950997185411e-01 
5.000000e-03  9.922225714033641e-01 
1.000000e-02  9.563520067733025e-01 
1.500000e-02  8.764223481398615e-01 
2.000000e-02  7.588915861606637e-01 
2.500000e-02  6.152413080758712e-01 
3.000000e-02  4.599026183158301e-01 
3.500000e-02  3.085967110192808e-01 
4.000000e-02  1.766005804730839e-01 
4.500000e-02  7.704304260099823e-02 
5.000000e-02  1.922687235488793e-02 
5.500000e-02  3.825241735702792e-03 
6.000000e-02  1.654826031308414e-02 
6.500000e-02  7.078977187410017e-02 
7.000000e-02  1.672883810461327e-01 
7.500000e-02  2.971404255724287e-01 
8.000000e-02  4.474591105431806e-01 
8.500000e-02  6.030766393833924e-01 
9.000000e-02  7.482415114558468e-01 
9.500000e-02  8.683552169180753e-01 
1.000000e-01  9.516388013906406e-01 
1.050000e-01  9.910861560711318e-01 
1.100000e-01  9.961230427912291e-01 
1.150000e-01  9.897369810543200e-01 
1.200000e-01  9.466682915493452e-01 
1.250000e-01  8.600571993343878e-01 
1.300000e-01  7.374197346769348e-01 
1.350000e-01  5.908238950120498e-01 
1.400000e-01  4.350264657578298e-01 
1.450000e-01  2.857987108544756e-01 
1.500000e-01  1.581881051315195e-01 
1.550000e-01  6.482819688738881e-02 
1.600000e-01  1.420145487782868e-02 
1.650000e-01  4.371707267592242e-03 
1.700000e-01  4.832613822196804e-03 
1.750000e-01  4.681972995294892e-03 
1.800000e-01  5.214604086541911e-03 
1.850000e-01  2.757102362132149e-02 
1.900000e-01  9.393916144551533e-02 
1.950000e-01  2.006096292793361e-01 
2.000000e-01  3.373840510817619e-01 
2.050000e-01  4.905956499271589e-01 
2.100000e-01  6.447562741753102e-01 
2.150000e-01  7.842733203213598e-01 
2.200000e-01  8.951739943488031e-01 
2.250000e-01  9.667520234613926e-01 
2.300000e-01  9.941124137995129e-01 
2.350000e-01  9.953884418100348e-01 
2.400000e-01  9.952176896177737e-01 
2.450000e-01  9.952551418140232e-01 
2.500000e-01  9.951828220362510e-01 
2.550000e-01  9.955950837424901e-01 
2.600000e-01  9.845042288300548e-01 
2.650000e-01  9.319329664367907e-01 
2.700000e-01  8.368746909015971e-01 
2.750000e-01  7.080435991822679e-01 
2.800000e-01  5.582115223643298e-01 
2.850000e-01  4.024926669553257e-01 
2.900000e-01  2.566496337116930e-01 
2.950000e-01  1.353558093559940e-01 
3.000000e-01  5.052496610057951e-02 
3.050000e-01  9.396840025142718e-03 
3.100000e-01  4.390997919023099e-03 
3.150000e-01  4.818376331676040e-03 
3.200000e-01  4.749500366327806e-03 
3.250000e-01  4.748552830354567e-03 
3.300000e-01  4.824428892714711e-03 
3.350000e-01  4.359207988631769e-03 
3.400000e-01  1.324707168105391e-02 
3.450000e-01  6.232825112570880e-02 
3.500000e-01  1.543326133789729e-01 
3.550000e-01  2.809663475794422e-01 
3.600000e-01  4.297069359030222e-01 
3.650000e-01  5.855609019141129e-01 
3.700000e-01  7.327510063126143e-01 
3.750000e-01  8.564550948493969e-01 
3.800000e-01  9.444840515211756e-01 
3.850000e-01  9.891154213395790e-01 
3.900000e-01  9.956407237819058e-01 
3.950000e-01  9.951756222412252e-01 
4.000000e-01  9.952530902968425e-01 
4.050000e-01  9.952411422259252e-01 
4.100000e-01  9.952430388096866e-01 
4.150000e-01  9.952427690111143e-01 
4.200000e-01  9.952428431030341e-01 
4.250000e-01  9.952428278381840e-01 
4.300000e-01  9.952430546636194e-01 
4.350000e-01  9.952417830373315e-01 
4.400000e-01  9.952500867372451e-01 
4.450000e-01  9.951967222286339e-01 
4.500000e-01  9.955235830067397e-01 
4.550000e-01  9.924737070383608e-01 
4.600000e-01  9.571945904263340e-01 
4.650000e-01  8.778467784105602e-01 
4.700000e-01  7.607817512753727e-01 
4.750000e-01  6.174270055848901e-01 
4.800000e-01  4.621810167487774e-01 
4.850000e-01  3.107550554831146e-01 
4.900000e-01  1.784398164843681e-01 
4.950000e-01  7.840107874394461e-02 
5.000000e-01  2.000916979855441e-02 
5.050000e-01  4.605233366022796e-03 
5.100000e-01  4.782443950189073e-03 
5.150000e-01  4.754049120394514e-03 
5.200000e-01  4.758419845699090e-03 
5.250000e-01  4.757690241297735e-03 
5.300000e-01  4.757757345565179e-03 
5.350000e-01  4.757701308641909e-03 
5.400000e-01  4.757656372324938e-03 
5.450000e-01  4.757661770188295e-03 
5.500000e-01  4.757325948665177e-03 
5.550000e-01  4.759178276058940e-03 
5.600000e-01  4.747039679213777e-03 
5.650000e-01  4.825277709942806e-03 
5.700000e-01  4.355395812557297e-03 
5.750000e-01  1.127768166339176e-02 
5.800000e-01  5.672662040404861e-02 
5.850000e-01  1.454929444372500e-01 
5.900000e-01  2.697460490368099e-01 
5.950000e-01  4.172342839622877e-01 
6.000000e-01  5.731025914166482e-01 
6.050000e-01  7.215722013950111e-01 
6.100000e-01  8.476796140885595e-01 
6.150000e-01  9.389621473651045e-01 
6.200000e-01  9.872276425940006e-01 
6.250000e-01  9.956450917096028e-01 
6.300000e-01  9.951745460452128e-01 
6.350000e-01  9.952529349607201e-01 
6.400000e-01  9.952411388733990e-01 
6.450000e-01  9.952411893696970e-01 
6.500000e-01  9.952529003418196e-01 
6.550000e-01  9.951754836584590e-01 
6.600000e-01  9.956409038243522e-01 
6.650000e-01  9.890959495195736e-01 
6.700000e-01  9.444235282035521e-01 
6.750000e-01  8.563576126492399e-01 
6.800000e-01  7.326260551065910e-01 
6.850000e-01  5.854210723363378e-01 
6.900000e-01  4.295664392285518e-01 
6.950000e-01  2.808394461702648e-01 
7.000000e-01  1.542320430129820e-01 
7.050000e-01  6.226372287617903e-02 
7.100000e-01  1.322318513343635e-02 
7.150000e-01  4.358956117503820e-03 
7.200000e-01  4.824815727030436e-03 
7.250000e-01  4.747234340642744e-03 
7.300000e-01  4.759222244297220e-03 
7.350000e-01  4.757267369648144e-03 
7.400000e-01  4.757982416332498e-03 
7.450000e-01  4.755148418589547e-03 
7.500000e-01  4.772964474597360e-03 
7.550000e-01  4.660577578191583e-03 
7.600000e-01  5.459512503203525e-03 
7.650000e-01  2.985104489612115e-02 
7.700000e-01  9.837512363197423e-02 
7.750000e-01  2.068055242295851e-01 
7.800000e-01  3.447309514313979e-01 
7.850000e-01  4.983559787624253e-01 
7.900000e-01  6.521468726010456e-01 
7.950000e-01  7.905516460181377e-01 
8.000000e-01  8.997213974526822e-01 
8.050000e-01  9.691561125316972e-01 
8.100000e-01  9.944229007453330e-01 
8.150000e-01  9.953535108749770e-01 
8.200000e-01  9.952246927328023e-01 
8.250000e-01  9.952453547080510e-01 
8.300000e-01  9.952405022968125e-01 
8.350000e-01  9.952512814744471e-01 
8.400000e-01  9.951844039903797e-01 
8.450000e-01  9.955887445700582e-01 
8.500000e-01  9.842971826746809e-01 
8.550000e-01  9.314298309838476e-01 
8.600000e-01  8.361149472541719e-01 
8.650000e-01  7.071013595635519e-01 
8.700000e-01  5.571815663703117e-01 
8.750000e-01  4.014794789846525e-01 
8.800000e-01  2.557558831545128e-01 
8.850000e-01  1.346709842483992e-01 
8.900000e-01  5.011465402444105e-02 
8.950000e-01  9.284155837152766e-03 
9.000000e-01  4.394498270871049e-03 
9.050000e-01  4.817816967413054e-03 
9.100000e-01  4.748348289072609e-03 
9.150000e-01  4.755503283716919e-03 
9.200000e-01  4.777775073831276e-03 
9.250000e-01  4.627946694752549e-03 
9.300000e-01  5.738065760186295e-03 
9.350000e-01  3.212731783969917e-02 
9.400000e-01  1.027172593430481e-01 
9.450000e-01  2.128217808020082e-01 
9.500000e-01  3.518291663756312e-01 
9.550000e-01  5.058233193842971e-01 
9.600000e-01  6.592298851931745e-01 
9.650000e-01  7.965391831126072e-01 
9.700000e-01  9.040245935914766e-01 
9.750000e-01  9.713888228099649e-01 
9.800000e-01  9.946788995442755e-01 
9.850000e-01  9.953220695225741e-01 
9.900000e-01  9.952297742544217e-01 
9.950000e-01  9.952444245521375e-01 
1.000000e+00  9.952417941576922e-01 
