TITLE ="t=373.288398" 
VARIABLES = "x"                 "phi" 
ZONE I=201, ZONETYPE=Ordered, DATAPACKING=POINT
0.000000e+00  9.960884655689842e-01 
5.000000e-03  9.908004336033430e-01 
1.000000e-02  9.504854581854389e-01 
1.500000e-02  8.663966554246534e-01 
2.000000e-02  7.456652858271736e-01 
2.500000e-02  6.001411885554693e-01 
3.000000e-02  4.444626344722158e-01 
3.500000e-02  2.943878359709411e-01 
4.000000e-02  1.650576942385986e-01 
4.500000e-02  6.930005844388412e-02 
5.000000e-02  1.591960992250399e-02 
5.500000e-02  3.636031343165557e-03 
6.000000e-02  1.545279575399681e-02 
6.500000e-02  6.813577173669685e-02 
7.000000e-02  1.632888181536115e-01 
7.500000e-02  2.921882611972084e-01 
8.000000e-02  4.420550172207355e-01 
8.500000e-02  5.977712207674108e-01 
9.000000e-02  7.435746080059809e-01 
9.500000e-02  8.647961062689400e-01 
1.000000e-01  9.495298242009137e-01 
1.050000e-01  9.905448920081391e-01 
1.100000e-01  9.961019609018142e-01 
1.150000e-01  9.908134861952539e-01 
1.200000e-01  9.505524533073391e-01 
1.250000e-01  8.665201847982501e-01 
1.300000e-01  7.458401212548355e-01 
1.350000e-01  6.003564941910648e-01 
1.400000e-01  4.447033083532190e-01 
1.450000e-01  2.946362190911149e-01 
1.500000e-01  1.652956057276594e-01 
1.550000e-01  6.951118576118610e-02 
1.600000e-01  1.609529042297031e-02 
1.650000e-01  4.421200023096594e-03 
1.700000e-01  4.826495963524653e-03 
1.750000e-01  4.666440851370245e-03 
1.800000e-01  5.344515949342529e-03 
1.850000e-01  2.880574885803059e-02 
1.900000e-01  9.635145162424044e-02 
1.950000e-01  2.039846539502106e-01 
2.000000e-01  3.413902590480546e-01 
2.050000e-01  4.948309340123372e-01 
2.100000e-01  6.487932760547029e-01 
2.150000e-01  7.877064605957701e-01 
2.200000e-01  8.976649233306637e-01 
2.250000e-01  9.680744085975661e-01 
2.300000e-01  9.942877634719431e-01 
2.350000e-01  9.953693427010587e-01 
2.400000e-01  9.952206631607503e-01 
2.450000e-01  9.952560189239571e-01 
2.500000e-01  9.951746393742399e-01 
2.550000e-01  9.956417778147182e-01 
2.600000e-01  9.868334979450513e-01 
2.650000e-01  9.378886592804327e-01 
2.700000e-01  8.460048273763785e-01 
2.750000e-01  7.194588724058989e-01 
2.800000e-01  5.707633172741271e-01 
2.850000e-01  4.149066419654819e-01 
2.900000e-01  2.676663611150155e-01 
2.950000e-01  1.438701493751728e-01 
3.000000e-01  5.571759325830018e-02 
3.050000e-01  1.094930381004260e-02 
3.100000e-01  4.358619586512331e-03 
3.150000e-01  4.824385174123949e-03 
3.200000e-01  4.748715179032241e-03 
3.250000e-01  4.748624703108491e-03 
3.300000e-01  4.825214644757391e-03 
3.350000e-01  4.354821105904127e-03 
3.400000e-01  1.275360740975962e-02 
3.450000e-01  6.098630403007220e-02 
3.500000e-01  1.522398204029679e-01 
3.550000e-01  2.783260914333340e-01 
3.600000e-01  4.267848281055985e-01 
3.650000e-01  5.826537216245298e-01 
3.700000e-01  7.301539249060172e-01 
3.750000e-01  8.544290390772953e-01 
3.800000e-01  9.432248744354881e-01 
3.850000e-01  9.887064536686972e-01 
3.900000e-01  9.956447932627328e-01 
3.950000e-01  9.951748204895180e-01 
4.000000e-01  9.952531559216374e-01 
4.050000e-01  9.952410798393410e-01 
4.100000e-01  9.952430009086788e-01 
4.150000e-01  9.952427316497944e-01 
4.200000e-01  9.952428106451346e-01 
4.250000e-01  9.952427955664193e-01 
4.300000e-01  9.952430491551280e-01 
4.350000e-01  9.952416346540797e-01 
4.400000e-01  9.952508792478028e-01 
4.450000e-01  9.951914278444083e-01 
4.500000e-01  9.955537945235915e-01 
4.550000e-01  9.919468457962392e-01 
4.600000e-01  9.547901008600531e-01 
4.650000e-01  8.736614815035415e-01 
4.700000e-01  7.552107502897889e-01 
4.750000e-01  6.110253206979709e-01 
4.800000e-01  4.555955006857256e-01 
4.850000e-01  3.046525429869734e-01 
4.900000e-01  1.734336465948653e-01 
4.950000e-01  7.498082124345656e-02 
5.000000e-01  1.845906567028172e-02 
5.050000e-01  4.521752314991683e-03 
5.100000e-01  4.796474129446757e-03 
5.150000e-01  4.751898199197602e-03 
5.200000e-01  4.758780903045956e-03 
5.250000e-01  4.757668212295698e-03 
5.300000e-01  4.757804919717226e-03 
5.350000e-01  4.757747815107506e-03 
5.400000e-01  4.757712783120481e-03 
5.450000e-01  4.757726785081103e-03 
5.500000e-01  4.757397113341297e-03 
5.550000e-01  4.759273056236864e-03 
5.600000e-01  4.747045836381852e-03 
5.650000e-01  4.825930160295279e-03 
5.700000e-01  4.352449392603999e-03 
5.750000e-01  1.213312244556750e-02 
5.800000e-01  5.924461922578270e-02 
5.850000e-01  1.495007422279040e-01 
5.900000e-01  2.748554413118401e-01 
5.950000e-01  4.229316535253155e-01 
6.000000e-01  5.788093647959816e-01 
6.050000e-01  7.267087900965628e-01 
6.100000e-01  8.517294429988285e-01 
6.150000e-01  9.415322571359993e-01 
6.200000e-01  9.881362576404542e-01 
6.250000e-01  9.956474638239755e-01 
6.300000e-01  9.951742115282749e-01 
6.350000e-01  9.952530614671562e-01 
6.400000e-01  9.952411754317806e-01 
6.450000e-01  9.952412012021373e-01 
6.500000e-01  9.952530029325154e-01 
6.550000e-01  9.951748387389877e-01 
6.600000e-01  9.956443527772485e-01 
6.650000e-01  9.887567169870243e-01 
6.700000e-01  9.433777315655147e-01 
6.750000e-01  8.546743506644793e-01 
6.800000e-01  7.304680111334411e-01 
6.850000e-01  5.830050465662094e-01 
6.900000e-01  4.271377278668028e-01 
6.950000e-01  2.786447183372852e-01 
7.000000e-01  1.524921004876452e-01 
7.050000e-01  6.114768449340013e-02 
7.100000e-01  1.281234979171129e-02 
7.150000e-01  4.355216507531687e-03 
7.200000e-01  4.825465227140090e-03 
7.250000e-01  4.747119537471034e-03 
7.300000e-01  4.759237438081821e-03 
7.350000e-01  4.757290081949963e-03 
7.400000e-01  4.757936767375948e-03 
7.450000e-01  4.755654607159572e-03 
7.500000e-01  4.770016208950846e-03 
7.550000e-01  4.679239894373302e-03 
7.600000e-01  5.310954653898422e-03 
7.650000e-01  2.851685431923496e-02 
7.700000e-01  9.579169570717906e-02 
7.750000e-01  2.032040509748227e-01 
7.800000e-01  3.404654752283960e-01 
7.850000e-01  4.938547086298954e-01 
7.900000e-01  6.478639929140028e-01 
7.950000e-01  7.869173277097593e-01 
8.000000e-01  8.970935248332635e-01 
8.050000e-01  9.677723818147000e-01 
8.100000e-01  9.942488064910608e-01 
8.150000e-01  9.953734515588367e-01 
8.200000e-01  9.952215434754259e-01 
8.250000e-01  9.952459887044155e-01 
8.300000e-01  9.952403640731091e-01 
8.350000e-01  9.952524915288842e-01 
8.400000e-01  9.951774405546807e-01 
8.450000e-01  9.956282993426985e-01 
8.500000e-01  9.859061562150738e-01 
8.550000e-01  9.354457035983884e-01 
8.600000e-01  8.422280353743388e-01 
8.650000e-01  7.147157417785855e-01 
8.700000e-01  5.655310789685626e-01 
8.750000e-01  4.097166166479593e-01 
8.800000e-01  2.630453061507467e-01 
8.850000e-01  1.402819955310374e-01 
8.900000e-01  5.350844521337472e-02 
8.950000e-01  1.026027411506632e-02 
9.000000e-01  4.369232341541838e-03 
9.050000e-01  4.822508090252349e-03 
9.100000e-01  4.747691680809307e-03 
9.150000e-01  4.756084374709215e-03 
9.200000e-01  4.775389056309380e-03 
9.250000e-01  4.643017492537368e-03 
9.300000e-01  5.606180252019552e-03 
9.350000e-01  3.108262327473077e-02 
9.400000e-01  1.007343535739883e-01 
9.450000e-01  2.100800810455764e-01 
9.500000e-01  3.485986775594422e-01 
9.550000e-01  5.024285217833162e-01 
9.600000e-01  6.560133240196656e-01 
9.650000e-01  7.938237661782978e-01 
9.700000e-01  9.020772461518247e-01 
9.750000e-01  9.703837490276278e-01 
9.800000e-01  9.945674245421712e-01 
9.850000e-01  9.953361263263266e-01 
9.900000e-01  9.952275778927697e-01 
9.950000e-01  9.952448465869830e-01 
1.000000e+00  9.952417470541630e-01 
