TITLE ="t=323.288398" 
VARIABLES = "x"                 "phi" 
ZONE I=201, ZONETYPE=Ordered, DATAPACKING=POINT
0.000000e+00  9.960587662866378e-01 
5.000000e-03  9.910455349045495e-01 
1.000000e-02  9.514185873908475e-01 
1.500000e-02  8.679665231032047e-01 
2.000000e-02  7.477207972857505e-01 
2.500000e-02  6.024755586620132e-01 
3.000000e-02  4.468382634115291e-01 
3.500000e-02  2.965626322965594e-01 
4.000000e-02  1.668117597524098e-01 
4.500000e-02  7.046104812180165e-02 
5.000000e-02  1.639408665492679e-02 
5.500000e-02  3.653976924816255e-03 
6.000000e-02  1.570387450060960e-02 
6.500000e-02  6.876087604505116e-02 
7.000000e-02  1.642380856262820e-01 
7.500000e-02  2.933683700227013e-01 
8.000000e-02  4.433465495600031e-01 
8.500000e-02  5.990424557958979e-01 
9.000000e-02  7.446960420928536e-01 
9.500000e-02  8.656547934675501e-01 
1.000000e-01  9.500429133233014e-01 
1.050000e-01  9.906828749195111e-01 
1.100000e-01  9.960946083392495e-01 
1.150000e-01  9.908072481485711e-01 
1.200000e-01  9.505225337101880e-01 
1.250000e-01  8.664683441834760e-01 
1.300000e-01  7.457714110917784e-01 
1.350000e-01  6.002778987704935e-01 
1.400000e-01  4.446229052382730e-01 
1.450000e-01  2.945622825964836e-01 
1.500000e-01  1.652356928226136e-01 
1.550000e-01  6.947126080516118e-02 
1.600000e-01  1.607862378901367e-02 
1.650000e-01  4.420979832314300e-03 
1.700000e-01  4.825115174286985e-03 
1.750000e-01  4.675795685837372e-03 
1.800000e-01  5.272096422432405e-03 
1.850000e-01  2.812948827261364e-02 
1.900000e-01  9.503368272251601e-02 
1.950000e-01  2.021428751513405e-01 
2.000000e-01  3.392054255418785e-01 
2.050000e-01  4.925223467536084e-01 
2.100000e-01  6.465938787563029e-01 
2.150000e-01  7.858372022723140e-01 
2.200000e-01  8.963099872478228e-01 
2.250000e-01  9.673567559446045e-01 
2.300000e-01  9.941940239142290e-01 
2.350000e-01  9.953797191876470e-01 
2.400000e-01  9.952189958787782e-01 
2.450000e-01  9.952561384824586e-01 
2.500000e-01  9.951754909122026e-01 
2.550000e-01  9.956367356134048e-01 
2.600000e-01  9.864201986483621e-01 
2.650000e-01  9.367863702268976e-01 
2.700000e-01  8.442948763984213e-01 
2.750000e-01  7.173075730077911e-01 
2.800000e-01  5.683871190800015e-01 
2.850000e-01  4.125468640973391e-01 
2.900000e-01  2.655625479660274e-01 
2.950000e-01  1.422335781072307e-01 
3.000000e-01  5.470625887762432e-02 
3.050000e-01  1.062873668154434e-02 
3.100000e-01  4.362893353539337e-03 
3.150000e-01  4.823572279491772e-03 
3.200000e-01  4.748810094486253e-03 
3.250000e-01  4.748602186083320e-03 
3.300000e-01  4.825138664414337e-03 
3.350000e-01  4.355215952783582e-03 
3.400000e-01  1.281105047325693e-02 
3.450000e-01  6.114438973681841e-02 
3.500000e-01  1.524871482244229e-01 
3.550000e-01  2.786386385328088e-01 
3.600000e-01  4.271311549206825e-01 
3.650000e-01  5.829986527671658e-01 
3.700000e-01  7.304624345347127e-01 
3.750000e-01  8.546701232348488e-01 
3.800000e-01  9.433752099105639e-01 
3.850000e-01  9.887559716656638e-01 
3.900000e-01  9.956443983330272e-01 
3.950000e-01  9.951749004876855e-01 
4.000000e-01  9.952531515726124e-01 
4.050000e-01  9.952410881456705e-01 
4.100000e-01  9.952430070182182e-01 
4.150000e-01  9.952427379081266e-01 
4.200000e-01  9.952428165287314e-01 
4.250000e-01  9.952428021692521e-01 
4.300000e-01  9.952430498255752e-01 
4.350000e-01  9.952416719357484e-01 
4.400000e-01  9.952506813458896e-01 
4.450000e-01  9.951927581964630e-01 
4.500000e-01  9.955462477629590e-01 
4.550000e-01  9.920875458538838e-01 
4.600000e-01  9.554106036614494e-01 
4.650000e-01  8.747351120709940e-01 
4.700000e-01  7.566359166751562e-01 
4.750000e-01  6.126599207433016e-01 
4.800000e-01  4.572742859834101e-01 
4.850000e-01  3.062054653908359e-01 
4.900000e-01  1.747045981237563e-01 
4.950000e-01  7.584554534652917e-02 
5.000000e-01  1.884620465565810e-02 
5.050000e-01  4.541224357174879e-03 
5.100000e-01  4.793165173213518e-03 
5.150000e-01  4.752408110010597e-03 
5.200000e-01  4.758698837091336e-03 
5.250000e-01  4.757676338649590e-03 
5.300000e-01  4.757796545939324e-03 
5.350000e-01  4.757739599111119e-03 
5.400000e-01  4.757702123961561e-03 
5.450000e-01  4.757714085656735e-03 
5.500000e-01  4.757382334185166e-03 
5.550000e-01  4.759256040836388e-03 
5.600000e-01  4.747027742401451e-03 
5.650000e-01  4.825902728519676e-03 
5.700000e-01  4.352464295329409e-03 
5.750000e-01  1.194139204212144e-02 
5.800000e-01  5.869293335519111e-02 
5.850000e-01  1.486276290607371e-01 
5.900000e-01  2.737455604971111e-01 
5.950000e-01  4.216966057242643e-01 
6.000000e-01  5.775745807478679e-01 
6.050000e-01  7.255996717665474e-01 
6.100000e-01  8.508575071522393e-01 
6.150000e-01  9.409820284417446e-01 
6.200000e-01  9.879460098890059e-01 
6.250000e-01  9.956476276775879e-01 
6.300000e-01  9.951741596162967e-01 
6.350000e-01  9.952530516465321e-01 
6.400000e-01  9.952411631723921e-01 
6.450000e-01  9.952411955430399e-01 
6.500000e-01  9.952529878109841e-01 
6.550000e-01  9.951749122223611e-01 
6.600000e-01  9.956439510646535e-01 
6.650000e-01  9.888035243172303e-01 
6.700000e-01  9.435203916330820e-01 
6.750000e-01  8.549033475935133e-01 
6.800000e-01  7.307612002373758e-01 
6.850000e-01  5.833329679932160e-01 
6.900000e-01  4.274670849533002e-01 
6.950000e-01  2.789420590340760e-01 
7.000000e-01  1.527275120482778e-01 
7.050000e-01  6.129829391069796e-02 
7.100000e-01  1.286726114555543e-02 
7.150000e-01  4.355627537388269e-03 
7.200000e-01  4.825392501655590e-03 
7.250000e-01  4.747129295863673e-03 
7.300000e-01  4.759231754129525e-03 
7.350000e-01  4.757279917341346e-03 
7.400000e-01  4.757946434090045e-03 
7.450000e-01  4.755513753098348e-03 
7.500000e-01  4.770821459345382e-03 
7.550000e-01  4.674118495113305e-03 
7.600000e-01  5.350972037805204e-03 
7.650000e-01  2.888582174361966e-02 
7.700000e-01  9.650916845441876e-02 
7.750000e-01  2.042059748879437e-01 
7.800000e-01  3.416533895048569e-01 
7.850000e-01  4.951093678272926e-01 
7.900000e-01  6.490587956700953e-01 
7.950000e-01  7.879322510111126e-01 
8.000000e-01  8.978285850964702e-01 
8.050000e-01  9.681609473904610e-01 
8.100000e-01  9.942989220351249e-01 
8.150000e-01  9.953678295172245e-01 
8.200000e-01  9.952224344549828e-01 
8.250000e-01  9.952458130039745e-01 
8.300000e-01  9.952403887468876e-01 
8.350000e-01  9.952522502513625e-01 
8.400000e-01  9.951787603938874e-01 
8.450000e-01  9.956207866048640e-01 
8.500000e-01  9.855272420183910e-01 
8.550000e-01  9.344768536892551e-01 
8.600000e-01  8.407428086894623e-01 
8.650000e-01  7.128588136116513e-01 
8.700000e-01  5.634893012089954e-01 
8.750000e-01  4.076972891783605e-01 
8.800000e-01  2.612532994375212e-01 
8.850000e-01  1.388970797644056e-01 
8.900000e-01  5.266389883866733e-02 
8.950000e-01  1.000794110252959e-02 
9.000000e-01  4.374570113810251e-03 
9.050000e-01  4.821505902551305e-03 
9.100000e-01  4.747827054988031e-03 
9.150000e-01  4.755949036587540e-03 
9.200000e-01  4.775941549290359e-03 
9.250000e-01  4.639505513484228e-03 
9.300000e-01  5.636392867945935e-03 
9.350000e-01  3.132685107093295e-02 
9.400000e-01  1.011993779341802e-01 
9.450000e-01  2.107238993330036e-01 
9.500000e-01  3.493579063596565e-01 
9.550000e-01  5.032269102741806e-01 
9.600000e-01  6.567703142276392e-01 
9.650000e-01  7.944633595919890e-01 
9.700000e-01  9.025365534709356e-01 
9.750000e-01  9.706216042536705e-01 
9.800000e-01  9.945943527866919e-01 
9.850000e-01  9.953327795095077e-01 
9.900000e-01  9.952281020319882e-01 
9.950000e-01  9.952447460559920e-01 
1.000000e+00  9.952417584182124e-01 
