TITLE ="t=423.288398" 
VARIABLES = "x"                 "phi" 
ZONE I=201, ZONETYPE=Ordered, DATAPACKING=POINT
0.000000e+00  9.961109137001783e-01 
5.000000e-03  9.906069183126238e-01 
1.000000e-02  9.497671203909583e-01 
1.500000e-02  8.651942799251732e-01 
2.000000e-02  7.440948116134939e-01 
2.500000e-02  5.983607262715521e-01 
3.000000e-02  4.426534966508633e-01 
3.500000e-02  2.927344569865271e-01 
4.000000e-02  1.637272985538840e-01 
4.500000e-02  6.842335121131447e-02 
5.000000e-02  1.556662031959443e-02 
5.500000e-02  3.624859677972229e-03 
6.000000e-02  1.522323107413887e-02 
6.500000e-02  6.755784245096354e-02 
7.000000e-02  1.624083458610556e-01 
7.500000e-02  2.910917438059183e-01 
8.000000e-02  4.408533815514504e-01 
8.500000e-02  5.965869997986007e-01 
9.000000e-02  7.425284321555780e-01 
9.500000e-02  8.639933475929469e-01 
1.000000e-01  9.490479835046807e-01 
1.050000e-01  9.904121016093547e-01 
1.100000e-01  9.961150507251861e-01 
1.150000e-01  9.907153969096275e-01 
1.200000e-01  9.501863740891727e-01 
1.250000e-01  8.659062582952612e-01 
1.300000e-01  7.450370432466444e-01 
1.350000e-01  5.994446199702212e-01 
1.400000e-01  4.437750030556439e-01 
1.450000e-01  2.937856267783906e-01 
1.500000e-01  1.646082684919157e-01 
1.550000e-01  6.905415798531611e-02 
1.600000e-01  1.590469482711957e-02 
1.650000e-01  4.414497011175767e-03 
1.700000e-01  4.829625236304827e-03 
1.750000e-01  4.653389669262723e-03 
1.800000e-01  5.447008097536162e-03 
1.850000e-01  2.972185694815531e-02 
1.900000e-01  9.812400786029608e-02 
1.950000e-01  2.064549853154277e-01 
2.000000e-01  3.443155228847213e-01 
2.050000e-01  4.979174758911744e-01 
2.100000e-01  6.517296737330653e-01 
2.150000e-01  7.901977986437513e-01 
2.200000e-01  8.994658887072406e-01 
2.250000e-01  9.690221463877180e-01 
2.300000e-01  9.944065124890070e-01 
2.350000e-01  9.953557181550610e-01 
2.400000e-01  9.952228468621955e-01 
2.450000e-01  9.952557407545176e-01 
2.500000e-01  9.951742099158459e-01 
2.550000e-01  9.956444812256476e-01 
2.600000e-01  9.871325910082220e-01 
2.650000e-01  9.387011917499818e-01 
2.700000e-01  8.472716237527865e-01 
2.750000e-01  7.210568107115587e-01 
2.800000e-01  5.725316404098177e-01 
2.850000e-01  4.166657538844957e-01 
2.900000e-01  2.692376601516018e-01 
2.950000e-01  1.450957762777865e-01 
3.000000e-01  5.647908504097525e-02 
3.050000e-01  1.119632795563660e-02 
3.100000e-01  4.356114918899227e-03 
3.150000e-01  4.824869740884280e-03 
3.200000e-01  4.748664255146259e-03 
3.250000e-01  4.748643731209395e-03 
3.300000e-01  4.825250845494370e-03 
3.350000e-01  4.354653124039510e-03 
3.400000e-01  1.272740751864555e-02 
3.450000e-01  6.091401951426575e-02 
3.500000e-01  1.521266516797647e-01 
3.550000e-01  2.781830281180454e-01 
3.600000e-01  4.266262605853682e-01 
3.650000e-01  5.824957555129637e-01 
3.700000e-01  7.300126018539101e-01 
3.750000e-01  8.543185632439921e-01 
3.800000e-01  9.431559366159324e-01 
3.850000e-01  9.886836835110961e-01 
3.900000e-01  9.956449655911070e-01 
3.950000e-01  9.951747846537884e-01 
4.000000e-01  9.952531566783068e-01 
4.050000e-01  9.952410747517195e-01 
4.100000e-01  9.952429964715237e-01 
4.150000e-01  9.952427268256862e-01 
4.200000e-01  9.952428057459126e-01 
4.250000e-01  9.952427895805704e-01 
4.300000e-01  9.952430484050649e-01 
4.350000e-01  9.952415986728097e-01 
4.400000e-01  9.952510665587819e-01 
4.450000e-01  9.951901605070872e-01 
4.500000e-01  9.955609541864050e-01 
4.550000e-01  9.918066731844094e-01 
4.600000e-01  9.541860664089191e-01 
4.650000e-01  8.726206054816663e-01 
4.700000e-01  7.538316767652589e-01 
4.750000e-01  6.094456315388721e-01 
4.800000e-01  4.539749457127842e-01 
4.850000e-01  3.031553093912197e-01 
4.900000e-01  1.722102632212804e-01 
4.950000e-01  7.415087074939186e-02 
5.000000e-01  1.809069202352673e-02 
5.050000e-01  4.504095826391906e-03 
5.100000e-01  4.799493502206657e-03 
5.150000e-01  4.751431026685414e-03 
5.200000e-01  4.758853791711743e-03 
5.250000e-01  4.757658928505526e-03 
5.300000e-01  4.757810795546286e-03 
5.350000e-01  4.757753653232898e-03 
5.400000e-01  4.757720963048326e-03 
5.450000e-01  4.757736895961056e-03 
5.500000e-01  4.757409468590846e-03 
5.550000e-01  4.759286020618950e-03 
5.600000e-01  4.747069712448241e-03 
5.650000e-01  4.825898403151610e-03 
5.700000e-01  4.352740840385226e-03 
5.750000e-01  1.230483876285869e-02 
5.800000e-01  5.973305167405224e-02 
5.850000e-01  1.502714818308613e-01 
5.900000e-01  2.758337174715683e-01 
5.950000e-01  4.240190868517861e-01 
6.000000e-01  5.798955136045891e-01 
6.050000e-01  7.276833517244811e-01 
6.100000e-01  8.524944432355110e-01 
6.150000e-01  9.420135768252224e-01 
6.200000e-01  9.883007208510937e-01 
6.250000e-01  9.956470294140959e-01 
6.300000e-01  9.951743106148596e-01 
6.350000e-01  9.952530628272850e-01 
6.400000e-01  9.952411884331542e-01 
6.450000e-01  9.952412080663995e-01 
6.500000e-01  9.952530133253376e-01 
6.550000e-01  9.951748062971464e-01 
6.600000e-01  9.956445419962224e-01 
6.650000e-01  9.887337792579599e-01 
6.700000e-01  9.433080016005134e-01 
6.750000e-01  8.545624888758754e-01 
6.800000e-01  7.303248364313365e-01 
6.850000e-01  5.828449463780325e-01 
6.900000e-01  4.269769595214020e-01 
6.950000e-01  2.784996114759501e-01 
7.000000e-01  1.523772533035293e-01 
7.050000e-01  6.107425484021916e-02 
7.100000e-01  1.278564031674331e-02 
7.150000e-01  4.355027547158203e-03 
7.200000e-01  4.825500833974259e-03 
7.250000e-01  4.747118418688710e-03 
7.300000e-01  4.759244404226362e-03 
7.350000e-01  4.757302394817749e-03 
7.400000e-01  4.757928442640484e-03 
7.450000e-01  4.755798712067731e-03 
7.500000e-01  4.769200165583623e-03 
7.550000e-01  4.684445802613895e-03 
7.600000e-01  5.270835916535425e-03 
7.650000e-01  2.813926315342305e-02 
7.700000e-01  9.505496669677065e-02 
7.750000e-01  2.021738322336432e-01 
7.800000e-01  3.392429826055206e-01 
7.850000e-01  4.925626531031300e-01 
7.900000e-01  6.466327544742546e-01 
7.950000e-01  7.858706050284399e-01 
8.000000e-01  8.963344680489642e-01 
8.050000e-01  9.673699128072308e-01 
8.100000e-01  9.941958707885141e-01 
8.150000e-01  9.953792893212177e-01 
8.200000e-01  9.952206154367375e-01 
8.250000e-01  9.952461691032127e-01 
8.300000e-01  9.952403454607521e-01 
8.350000e-01  9.952526880037303e-01 
8.400000e-01  9.951764135880695e-01 
8.450000e-01  9.956341739922706e-01 
8.500000e-01  9.862543601003891e-01 
8.550000e-01  9.363503919655147e-01 
8.600000e-01  8.436212474554017e-01 
8.650000e-01  7.164618393319362e-01 
8.700000e-01  5.674543661853819e-01 
8.750000e-01  4.116218006118721e-01 
8.800000e-01  2.647390526313162e-01 
8.850000e-01  1.415943179517583e-01 
8.900000e-01  5.431289090890369e-02 
8.950000e-01  1.050635448136170e-02 
9.000000e-01  4.364780843192445e-03 
9.050000e-01  4.823350601652882e-03 
9.100000e-01  4.747581292091676e-03 
9.150000e-01  4.756205872192233e-03 
9.200000e-01  4.774895274923653e-03 
9.250000e-01  4.646169601816891e-03 
9.300000e-01  5.579325875379148e-03 
9.350000e-01  3.086295912461394e-02 
9.400000e-01  1.003153221848855e-01 
9.450000e-01  2.094994914740063e-01 
9.500000e-01  3.479136779300175e-01 
9.550000e-01  5.017079038407162e-01 
9.600000e-01  6.553297980804195e-01 
9.650000e-01  7.932459582642670e-01 
9.700000e-01  9.016619798827115e-01 
9.750000e-01  9.701682838079478e-01 
9.800000e-01  9.945427356875891e-01 
9.850000e-01  9.953391680352310e-01 
9.900000e-01  9.952271008602783e-01 
9.950000e-01  9.952449379606709e-01 
1.000000e+00  9.952417366260348e-01 
