TITLE ="t=343.288398" 
VARIABLES = "x"                 "phi" 
ZONE I=201, ZONETYPE=Ordered, DATAPACKING=POINT
0.000000e+00  9.960717376191780e-01 
5.000000e-03  9.909399330170366e-01 
1.000000e-02  9.510132211045795e-01 
1.500000e-02  8.672834318908582e-01 
2.000000e-02  7.468256863291812e-01 
2.500000e-02  6.014584536198162e-01 
3.000000e-02  4.458026711332347e-01 
3.500000e-02  2.956140722580736e-01 
4.000000e-02  1.660461334192598e-01 
4.500000e-02  6.995358342005599e-02 
5.000000e-02  1.618571979481792e-02 
5.500000e-02  3.645695353690589e-03 
6.000000e-02  1.560031567208498e-02 
6.500000e-02  6.850396529493283e-02 
7.000000e-02  1.638483516909345e-01 
7.500000e-02  2.928841343229990e-01 
8.000000e-02  4.428168160906192e-01 
8.500000e-02  5.985212523979706e-01 
9.000000e-02  7.442364648929775e-01 
9.500000e-02  8.653031270316519e-01 
1.000000e-01  9.498330810437584e-01 
1.050000e-01  9.906268870551747e-01 
1.100000e-01  9.960967545071938e-01 
1.150000e-01  9.908242724808238e-01 
1.200000e-01  9.505899512841695e-01 
1.250000e-01  8.665824054513371e-01 
1.300000e-01  7.459211631382239e-01 
1.350000e-01  6.004483005407462e-01 
1.400000e-01  4.447966350497293e-01 
1.450000e-01  2.947216578771456e-01 
1.500000e-01  1.653646207872805e-01 
1.550000e-01  6.955709885831238e-02 
1.600000e-01  1.611451599053553e-02 
1.650000e-01  4.422060051337922e-03 
1.700000e-01  4.825432251156984e-03 
1.750000e-01  4.672485859734643e-03 
1.800000e-01  5.297732444563849e-03 
1.850000e-01  2.837183650493875e-02 
1.900000e-01  9.550686001347816e-02 
1.950000e-01  2.028047369170835e-01 
2.000000e-01  3.399909529627413e-01 
2.050000e-01  4.933526951278387e-01 
2.100000e-01  6.473852614485326e-01 
2.150000e-01  7.865101121398775e-01 
2.200000e-01  8.967981080002345e-01 
2.250000e-01  9.676157474849953e-01 
2.300000e-01  9.942282377664587e-01 
2.350000e-01  9.953759700837814e-01 
2.400000e-01  9.952195980894178e-01 
2.450000e-01  9.952561122833595e-01 
2.500000e-01  9.951750847804857e-01 
2.550000e-01  9.956391152507068e-01 
2.600000e-01  9.866002737697176e-01 
2.650000e-01  9.372638365923536e-01 
2.700000e-01  8.450343623593485e-01 
2.750000e-01  7.182371384442418e-01 
2.800000e-01  5.694132345557088e-01 
2.850000e-01  4.135653230765997e-01 
2.900000e-01  2.664699716180463e-01 
2.950000e-01  1.429388494024364e-01 
3.000000e-01  5.514131770892446e-02 
3.050000e-01  1.076558186161265e-02 
3.100000e-01  4.360924937003325e-03 
3.150000e-01  4.823945141363760e-03 
3.200000e-01  4.748765534800283e-03 
3.250000e-01  4.748611517154304e-03 
3.300000e-01  4.825175155177778e-03 
3.350000e-01  4.355022823098427e-03 
3.400000e-01  1.278355103118257e-02 
3.450000e-01  6.106877542452011e-02 
3.500000e-01  1.523688759394990e-01 
3.550000e-01  2.784891966168671e-01 
3.600000e-01  4.269655760914098e-01 
3.650000e-01  5.828337543012845e-01 
3.700000e-01  7.303149607236238e-01 
3.750000e-01  8.545548941864816e-01 
3.800000e-01  9.433033724437740e-01 
3.850000e-01  9.887323329258509e-01 
3.900000e-01  9.956445902192461e-01 
3.950000e-01  9.951748617906742e-01 
4.000000e-01  9.952531538777448e-01 
4.050000e-01  9.952410843458743e-01 
4.100000e-01  9.952430043266584e-01 
4.150000e-01  9.952427351874544e-01 
4.200000e-01  9.952428140202639e-01 
4.250000e-01  9.952427994249277e-01 
4.300000e-01  9.952430495428447e-01 
4.350000e-01  9.952416568662736e-01 
4.400000e-01  9.952507616832730e-01 
4.450000e-01  9.951922190698326e-01 
4.500000e-01  9.955493098555090e-01 
4.550000e-01  9.920312777493626e-01 
4.600000e-01  9.551606909009908e-01 
4.650000e-01  8.743021634179076e-01 
4.700000e-01  7.560608804339671e-01 
4.750000e-01  6.120001236785306e-01 
4.800000e-01  4.565964229835189e-01 
4.850000e-01  3.055781940442743e-01 
4.900000e-01  1.741909726249085e-01 
4.950000e-01  7.549578399044050e-02 
5.000000e-01  1.868921312896876e-02 
5.050000e-01  4.533215834128855e-03 
5.100000e-01  4.794523424909154e-03 
5.150000e-01  4.752199041155656e-03 
5.200000e-01  4.758732783238197e-03 
5.250000e-01  4.757673247318849e-03 
5.300000e-01  4.757800215961719e-03 
5.350000e-01  4.757743192285314e-03 
5.400000e-01  4.757706707040622e-03 
5.450000e-01  4.757719499494996e-03 
5.500000e-01  4.757388554944700e-03 
5.550000e-01  4.759263389384252e-03 
5.600000e-01  4.747034104171021e-03 
5.650000e-01  4.825922185454744e-03 
5.700000e-01  4.352414158710126e-03 
5.750000e-01  1.202063633490151e-02 
5.800000e-01  5.892178060561796e-02 
5.850000e-01  1.489901413173116e-01 
5.900000e-01  2.742065930838956e-01 
5.950000e-01  4.222098027484366e-01 
6.000000e-01  5.780878226819127e-01 
6.050000e-01  7.260608343455882e-01 
6.100000e-01  8.512202206946250e-01 
6.150000e-01  9.412111261531750e-01 
6.200000e-01  9.880255113657556e-01 
6.250000e-01  9.956476029528081e-01 
6.300000e-01  9.951741732158301e-01 
6.350000e-01  9.952530568296428e-01 
6.400000e-01  9.952411679547294e-01 
6.450000e-01  9.952411976440868e-01 
6.500000e-01  9.952529945248473e-01 
6.550000e-01  9.951748771477222e-01 
6.600000e-01  9.956441412705401e-01 
6.650000e-01  9.887816904615090e-01 
6.700000e-01  9.434537832914401e-01 
6.750000e-01  8.547964043810408e-01 
6.800000e-01  7.306242633832120e-01 
6.850000e-01  5.831797967435733e-01 
6.900000e-01  4.273132319074460e-01 
6.950000e-01  2.788031505841527e-01 
7.000000e-01  1.526175225208660e-01 
7.050000e-01  6.122791041613668e-02 
7.100000e-01  1.284157870168166e-02 
7.150000e-01  4.355431745163230e-03 
7.200000e-01  4.825426869514898e-03 
7.250000e-01  4.747124195695241e-03 
7.300000e-01  4.759233867424477e-03 
7.350000e-01  4.757283696343977e-03 
7.400000e-01  4.757942392646890e-03 
7.450000e-01  4.755569634254388e-03 
7.500000e-01  4.770500963389642e-03 
7.550000e-01  4.676154902555693e-03 
7.600000e-01  5.334993836574081e-03 
7.650000e-01  2.873939220873941e-02 
7.700000e-01  9.622471380408162e-02 
7.750000e-01  2.038089047844412e-01 
7.800000e-01  3.411827276924451e-01 
7.850000e-01  4.946123610637303e-01 
7.900000e-01  6.485855938851045e-01 
7.950000e-01  7.875303876162006e-01 
8.000000e-01  8.975376452101749e-01 
8.050000e-01  9.680072908996474e-01 
8.100000e-01  9.942792198505042e-01 
8.150000e-01  9.953700509185289e-01 
8.200000e-01  9.952220827226848e-01 
8.250000e-01  9.952458826728926e-01 
8.300000e-01  9.952403780598903e-01 
8.350000e-01  9.952523525615229e-01 
8.400000e-01  9.951781943437555e-01 
8.450000e-01  9.956240053626413e-01 
8.500000e-01  9.856825724999917e-01 
8.550000e-01  9.348721299045351e-01 
8.600000e-01  8.413479252178847e-01 
8.650000e-01  7.136148169406243e-01 
8.700000e-01  5.643201189436664e-01 
8.750000e-01  4.085185725279334e-01 
8.800000e-01  2.619817314150170e-01 
8.850000e-01  1.394595957129489e-01 
8.900000e-01  5.300638613689638e-02 
8.950000e-01  1.010952287597098e-02 
9.000000e-01  4.372325344680585e-03 
9.050000e-01  4.821926441592902e-03 
9.100000e-01  4.747769802642742e-03 
9.150000e-01  4.756004803343586e-03 
9.200000e-01  4.775713625050056e-03 
9.250000e-01  4.640952549505390e-03 
9.300000e-01  5.623906822690459e-03 
9.350000e-01  3.122628572133858e-02 
9.400000e-01  1.010080050791534e-01 
9.450000e-01  2.104590099730231e-01 
9.500000e-01  3.490455801360866e-01 
9.550000e-01  5.028985153091473e-01 
9.600000e-01  6.564589859045551e-01 
9.650000e-01  7.942003535094058e-01 
9.700000e-01  9.023477289039754e-01 
9.750000e-01  9.705238791037208e-01 
9.800000e-01  9.945833303673638e-01 
9.850000e-01  9.953341531529659e-01 
9.900000e-01  9.952278870012510e-01 
9.950000e-01  9.952447873153538e-01 
1.000000e+00  9.952417537671392e-01 
