TITLE ="t=473.288398" 
VARIABLES = "x"                 "phi" 
ZONE I=201, ZONETYPE=Ordered, DATAPACKING=POINT
0.000000e+00  9.961288460563638e-01 
5.000000e-03  9.904466657650319e-01 
1.000000e-02  9.491836690141136e-01 
1.500000e-02  8.642215472698977e-01 
2.000000e-02  7.428267216179028e-01 
2.500000e-02  5.969250171682394e-01 
3.000000e-02  4.411964260199410e-01 
3.500000e-02  2.914046083506530e-01 
4.000000e-02  1.626592003939853e-01 
4.500000e-02  6.772192763739485e-02 
5.000000e-02  1.528755404783902e-02 
5.500000e-02  3.617467086486968e-03 
6.000000e-02  1.500439228693108e-02 
6.500000e-02  6.700146548031713e-02 
7.000000e-02  1.615582801764598e-01 
7.500000e-02  2.900314415720088e-01 
8.000000e-02  4.396900736156424e-01 
8.500000e-02  5.954392900777271e-01 
9.000000e-02  7.415132207777669e-01 
9.500000e-02  8.632128901690194e-01 
1.000000e-01  9.485776668466108e-01 
1.050000e-01  9.902797761870336e-01 
1.100000e-01  9.961325102837608e-01 
1.150000e-01  9.905362237192024e-01 
1.200000e-01  9.495234390764256e-01 
1.250000e-01  8.647968534076659e-01 
1.300000e-01  7.435874273906453e-01 
1.350000e-01  5.977999885212564e-01 
1.400000e-01  4.421020791620234e-01 
1.450000e-01  2.922541965599355e-01 
1.500000e-01  1.633724565271195e-01 
1.550000e-01  6.823459925640117e-02 
1.600000e-01  1.556591079653094e-02 
1.650000e-01  4.403448538049933e-03 
1.700000e-01  4.834113469874101e-03 
1.750000e-01  4.636373072932671e-03 
1.800000e-01  5.585579089653323e-03 
1.850000e-01  3.089387744853835e-02 
1.900000e-01  1.003717709366928e-01 
1.950000e-01  2.095762843051676e-01 
2.000000e-01  3.480032895044723e-01 
2.050000e-01  5.018014365845217e-01 
2.100000e-01  6.554179603917722e-01 
2.150000e-01  7.933200769778985e-01 
2.200000e-01  9.017149707890044e-01 
2.250000e-01  9.701956203619123e-01 
2.300000e-01  9.945457812692587e-01 
2.350000e-01  9.953390288135340e-01 
2.400000e-01  9.952255052108862e-01 
2.450000e-01  9.952553365306235e-01 
2.500000e-01  9.951740257294505e-01 
2.550000e-01  9.956458193353854e-01 
2.600000e-01  9.873314132775688e-01 
2.650000e-01  9.392487518198480e-01 
2.700000e-01  8.481284380197823e-01 
2.750000e-01  7.221396522749299e-01 
2.800000e-01  5.737315832013292e-01 
2.850000e-01  4.178609245214630e-01 
2.900000e-01  2.703066990716240e-01 
2.950000e-01  1.459312545392445e-01 
3.000000e-01  5.700018175634877e-02 
3.050000e-01  1.136812916123179e-02 
3.100000e-01  4.354765599123611e-03 
3.150000e-01  4.825136075757036e-03 
3.200000e-01  4.748640056924000e-03 
3.250000e-01  4.748658399982401e-03 
3.300000e-01  4.825262833389307e-03 
3.350000e-01  4.354617393972176e-03 
3.400000e-01  1.272132383107837e-02 
3.450000e-01  6.089720576498733e-02 
3.500000e-01  1.521003124748999e-01 
3.550000e-01  2.781497194877808e-01 
3.600000e-01  4.265893325376749e-01 
3.650000e-01  5.824589591630711e-01 
3.700000e-01  7.299796748487348e-01 
3.750000e-01  8.542928164751307e-01 
3.800000e-01  9.431398636609371e-01 
3.850000e-01  9.886783673989923e-01 
3.900000e-01  9.956450044217940e-01 
3.950000e-01  9.951747754619823e-01 
4.000000e-01  9.952531553505836e-01 
4.050000e-01  9.952410716172292e-01 
4.100000e-01  9.952429930071968e-01 
4.150000e-01  9.952427227800924e-01 
4.200000e-01  9.952428012997997e-01 
4.250000e-01  9.952427837975576e-01 
4.300000e-01  9.952430472459094e-01 
4.350000e-01  9.952415639671992e-01 
4.400000e-01  9.952512421536905e-01 
4.450000e-01  9.951889631670396e-01 
4.500000e-01  9.955676907398471e-01 
4.550000e-01  9.916681007852644e-01 
4.600000e-01  9.536019744775975e-01 
4.650000e-01  8.716180709800769e-01 
4.700000e-01  7.525058479667740e-01 
4.750000e-01  6.079288474895652e-01 
4.800000e-01  4.524206428304604e-01 
4.850000e-01  3.017209965020621e-01 
4.900000e-01  1.710401602673967e-01 
4.950000e-01  7.335932986882607e-02 
5.000000e-01  1.774237627289166e-02 
5.050000e-01  4.488194696481626e-03 
5.100000e-01  4.802227910309261e-03 
5.150000e-01  4.751006088620387e-03 
5.200000e-01  4.758917941509047e-03 
5.250000e-01  4.757648789862078e-03 
5.300000e-01  4.757814505393746e-03 
5.350000e-01  4.757757449272280e-03 
5.400000e-01  4.757727005260377e-03 
5.450000e-01  4.757744778567284e-03 
5.500000e-01  4.757419691570405e-03 
5.550000e-01  4.759295717659920e-03 
5.600000e-01  4.747097064569995e-03 
5.650000e-01  4.825825423777370e-03 
5.700000e-01  4.353242597553808e-03 
5.750000e-01  1.245879754807635e-02 
5.800000e-01  6.016662294068990e-02 
5.850000e-01  1.509538936770309e-01 
5.900000e-01  2.766987400680277e-01 
5.950000e-01  4.249797216993392e-01 
6.000000e-01  5.808541957106121e-01 
6.050000e-01  7.285427272701561e-01 
6.100000e-01  8.531681291650891e-01 
6.150000e-01  9.424363327578803e-01 
6.200000e-01  9.884436487668967e-01 
6.250000e-01  9.956464273476830e-01 
6.300000e-01  9.951744383788964e-01 
6.350000e-01  9.952530586995363e-01 
6.400000e-01  9.952412017790161e-01 
6.450000e-01  9.952412159120961e-01 
6.500000e-01  9.952530200914576e-01 
6.550000e-01  9.951748060043649e-01 
6.600000e-01  9.956445655915894e-01 
6.650000e-01  9.887310859167144e-01 
6.700000e-01  9.432998123420505e-01 
6.750000e-01  8.545493497286010e-01 
6.800000e-01  7.303080184786971e-01 
6.850000e-01  5.828261406421593e-01 
6.900000e-01  4.269580768892891e-01 
6.950000e-01  2.784825711462433e-01 
7.000000e-01  1.523637705247968e-01 
7.050000e-01  6.106563966480032e-02 
7.100000e-01  1.278251271708093e-02 
7.150000e-01  4.355007624600130e-03 
7.200000e-01  4.825508434297919e-03 
7.250000e-01  4.747124053875567e-03 
7.300000e-01  4.759252496021242e-03 
7.350000e-01  4.757316453257223e-03 
7.400000e-01  4.757921249336551e-03 
7.450000e-01  4.755945158611863e-03 
7.500000e-01  4.768377148679475e-03 
7.550000e-01  4.689711135304564e-03 
7.600000e-01  5.230818346045637e-03 
7.650000e-01  2.775451477901517e-02 
7.700000e-01  9.430161920964805e-02 
7.750000e-01  2.011188811716696e-01 
7.800000e-01  3.379900476607514e-01 
7.850000e-01  4.912374962240445e-01 
7.900000e-01  6.453691023771204e-01 
7.950000e-01  7.847954302948592e-01 
8.000000e-01  8.955537612273040e-01 
8.050000e-01  9.669546818845816e-01 
8.100000e-01  9.941401495017510e-01 
8.150000e-01  9.953853248991564e-01 
8.200000e-01  9.952196527381143e-01 
8.250000e-01  9.952463536540539e-01 
8.300000e-01  9.952403315758478e-01 
8.350000e-01  9.952528461088408e-01 
8.400000e-01  9.951756346725908e-01 
8.450000e-01  9.956386658712176e-01 
8.500000e-01  9.865733994086604e-01 
8.550000e-01  9.371923435631686e-01 
8.600000e-01  8.449235278307823e-01 
8.650000e-01  7.180977334492458e-01 
8.700000e-01  5.692592747637862e-01 
8.750000e-01  4.134124346607331e-01 
8.800000e-01  2.663336674379440e-01 
8.850000e-01  1.428328153609566e-01 
8.900000e-01  5.507579619397025e-02 
8.950000e-01  1.074483747369961e-02 
9.000000e-01  4.361153227788575e-03 
9.050000e-01  4.824043471320650e-03 
9.100000e-01  4.747493981777308e-03 
9.150000e-01  4.756313289383276e-03 
9.200000e-01  4.774461332284106e-03 
9.250000e-01  4.648951899828545e-03 
9.300000e-01  5.555826157398266e-03 
9.350000e-01  3.066868306603413e-02 
9.400000e-01  9.994410041642002e-02 
9.450000e-01  2.089847877207675e-01 
9.500000e-01  3.473061468790393e-01 
9.550000e-01  5.010685542841381e-01 
9.600000e-01  6.547231401033422e-01 
9.650000e-01  7.927329029224687e-01 
9.700000e-01  9.012929905324022e-01 
9.750000e-01  9.699764998639262e-01 
9.800000e-01  9.945205229376179e-01 
9.850000e-01  9.953418830144867e-01 
9.900000e-01  9.952266745131209e-01 
9.950000e-01  9.952450195156358e-01 
1.000000e+00  9.952417272274717e-01 
