TITLE ="t=0.279707" 
VARIABLES = "x"                 "phi" 
ZONE I=201, ZONETYPE=Ordered, DATAPACKING=POINT
0.000000e+00  9.959822233235440e-01 
5.000000e-03  9.922737610293538e-01 
1.000000e-02  9.554954815959208e-01 
1.500000e-02  8.739872728574680e-01 
2.000000e-02  7.547874284789028e-01 
2.500000e-02  6.098207458723000e-01 
3.000000e-02  4.537926678679713e-01 
3.500000e-02  3.025451081052757e-01 
4.000000e-02  1.713608124569386e-01 
4.500000e-02  7.330845051844059e-02 
5.000000e-02  1.759063162286905e-02 
5.500000e-02  4.827136791783483e-03 
6.000000e-02  2.764383383277570e-02 
6.500000e-02  9.534611819228982e-02 
7.000000e-02  2.043111131960790e-01 
7.500000e-02  3.440987511888535e-01 
8.000000e-02  5.005467500293949e-01 
8.500000e-02  6.574463636349374e-01 
9.000000e-02  7.983139505085503e-01 
9.500000e-02  9.081879071102511e-01 
1.000000e-01  9.754116658136837e-01 
1.050000e-01  9.953643314936395e-01 
1.100000e-01  9.960022354050326e-01 
1.150000e-01  9.858423147810464e-01 
1.200000e-01  9.300507696171390e-01 
1.250000e-01  8.282188613779895e-01 
1.300000e-01  6.912344309944327e-01 
1.350000e-01  5.340270502784286e-01 
1.400000e-01  3.735616613853893e-01 
1.450000e-01  2.269841588699976e-01 
1.500000e-01  1.097735145094721e-01 
1.550000e-01  3.397296835830829e-02 
1.600000e-01  5.497965905191578e-03 
1.650000e-01  4.442564941231623e-03 
1.700000e-01  4.677164207733826e-03 
1.750000e-01  4.531641775087262e-03 
1.800000e-01  6.134969948851474e-03 
1.850000e-01  3.467955666154963e-02 
1.900000e-01  1.067761706271200e-01 
1.950000e-01  2.173025508462177e-01 
2.000000e-01  3.556853805827038e-01 
2.050000e-01  5.082443042694880e-01 
2.100000e-01  6.597877530242469e-01 
2.150000e-01  7.952978852118687e-01 
2.200000e-01  9.016128428457026e-01 
2.250000e-01  9.690416573684488e-01 
2.300000e-01  9.940221811343377e-01 
2.350000e-01  9.951367969206972e-01 
2.400000e-01  9.949282406454926e-01 
2.450000e-01  9.949021404161419e-01 
2.500000e-01  9.950029845309110e-01 
2.550000e-01  9.941529144732906e-01 
2.600000e-01  9.728357967568056e-01 
2.650000e-01  9.116711813194911e-01 
2.700000e-01  8.126815680257596e-01 
2.750000e-01  6.842058817311667e-01 
2.800000e-01  5.381338729982111e-01 
2.850000e-01  3.883699970533787e-01 
2.900000e-01  2.492388277695240e-01 
2.950000e-01  1.338642337599850e-01 
3.000000e-01  5.262205570952281e-02 
3.050000e-01  1.146015340563846e-02 
3.100000e-01  4.714989386529415e-03 
3.150000e-01  5.081981953913926e-03 
3.200000e-01  4.991164997817503e-03 
3.250000e-01  4.962016428319688e-03 
3.300000e-01  4.712620621492823e-03 
3.350000e-01  5.872404995596270e-03 
3.400000e-01  3.282889416353041e-02 
3.450000e-01  1.042506300168527e-01 
3.500000e-01  2.155022566997168e-01 
3.550000e-01  3.558662658772591e-01 
3.600000e-01  5.111862712764893e-01 
3.650000e-01  6.655578300774817e-01 
3.700000e-01  8.030969459868006e-01 
3.750000e-01  9.097134167848370e-01 
3.800000e-01  9.748607238035827e-01 
3.850000e-01  9.951140653540206e-01 
3.900000e-01  9.951650789471899e-01 
3.950000e-01  9.953022074612801e-01 
4.000000e-01  9.924474509151157e-01 
4.050000e-01  9.616162191925576e-01 
4.100000e-01  8.918258282139142e-01 
4.150000e-01  7.889828431045014e-01 
4.200000e-01  6.635907461221237e-01 
4.250000e-01  5.286780289074861e-01 
4.300000e-01  3.982985932252763e-01 
4.350000e-01  2.859928641546003e-01 
4.400000e-01  2.033195677645362e-01 
4.450000e-01  1.586278066941460e-01 
4.500000e-01  1.562450677741426e-01 
4.550000e-01  1.961537958471009e-01 
4.600000e-01  2.740310967469979e-01 
4.650000e-01  3.816111029867437e-01 
4.700000e-01  5.074729549205832e-01 
4.750000e-01  6.382108069859046e-01 
4.800000e-01  7.598337610279439e-01 
4.850000e-01  8.592334014290514e-01 
4.900000e-01  9.255705902331267e-01 
4.950000e-01  9.514256276061872e-01 
5.000000e-01  9.332828168176156e-01 
5.050000e-01  8.713770268321045e-01 
5.100000e-01  7.704324308323408e-01 
5.150000e-01  6.397711196194816e-01 
5.200000e-01  4.923109800342103e-01 
5.250000e-01  3.430726427471064e-01 
5.300000e-01  2.074750805037928e-01 
5.350000e-01  9.959926945650548e-02 
5.400000e-01  3.050915040021157e-02 
5.450000e-01  5.434095064091458e-03 
5.500000e-01  4.555368904766828e-03 
5.550000e-01  4.627150915135347e-03 
5.600000e-01  4.557359035310867e-03 
5.650000e-01  4.553082787638217e-03 
5.700000e-01  4.326421708774250e-03 
5.750000e-01  5.737309564514528e-03 
5.800000e-01  3.736688234732045e-02 
5.850000e-01  1.173658022355134e-01 
5.900000e-01  2.386666807614784e-01 
5.950000e-01  3.883325918515179e-01 
6.000000e-01  5.501976579451918e-01 
6.050000e-01  7.067315349669281e-01 
6.100000e-01  8.409627159952709e-01 
6.150000e-01  9.383667895066933e-01 
6.200000e-01  9.888798777713463e-01 
6.250000e-01  9.960300353177840e-01 
6.300000e-01  9.955559626096010e-01 
6.350000e-01  9.957593734601951e-01 
6.400000e-01  9.958265059756465e-01 
6.450000e-01  9.959034843922306e-01 
6.500000e-01  9.959537802117689e-01 
6.550000e-01  9.959657527920933e-01 
6.600000e-01  9.958920673752002e-01 
6.650000e-01  9.960110354423991e-01 
6.700000e-01  9.721751284574952e-01 
6.750000e-01  8.924393630654920e-01 
6.800000e-01  7.645071601435632e-01 
6.850000e-01  6.039365361798513e-01 
6.900000e-01  4.302264353135791e-01 
6.950000e-01  2.645878366912224e-01 
7.000000e-01  1.276438871403399e-01 
7.050000e-01  3.710267485080862e-02 
7.100000e-01  4.376319610270992e-03 
7.150000e-01  3.835654489364988e-03 
7.200000e-01  3.812754947525055e-03 
7.250000e-01  3.731850710893873e-03 
7.300000e-01  3.699964252104740e-03 
7.350000e-01  3.700245347515382e-03 
7.400000e-01  3.741907355670919e-03 
7.450000e-01  3.833277469583648e-03 
7.500000e-01  3.928585145184723e-03 
7.550000e-01  4.185319615934100e-03 
7.600000e-01  3.640293591394283e-03 
7.650000e-01  1.571790642790867e-02 
7.700000e-01  7.909031897753055e-02 
7.750000e-01  1.910516971322463e-01 
7.800000e-01  3.382732622117203e-01 
7.850000e-01  5.035585170578979e-01 
7.900000e-01  6.679679126452093e-01 
7.950000e-01  8.128846651735654e-01 
8.000000e-01  9.220504587211314e-01 
8.050000e-01  9.835935602846630e-01 
8.100000e-01  9.961207288743991e-01 
8.150000e-01  9.955514337411404e-01 
8.200000e-01  9.956435576254252e-01 
8.250000e-01  9.955913980968825e-01 
8.300000e-01  9.955631518106510e-01 
8.350000e-01  9.955556533737921e-01 
8.400000e-01  9.954327036582709e-01 
8.450000e-01  9.959670442146182e-01 
8.500000e-01  9.885952212265496e-01 
8.550000e-01  9.381699631775429e-01 
8.600000e-01  8.410762656956734e-01 
8.650000e-01  7.070693551542643e-01 
8.700000e-01  5.504923922235913e-01 
8.750000e-01  3.882785132221571e-01 
8.800000e-01  2.380657154668530e-01 
8.850000e-01  1.162694209466741e-01 
8.900000e-01  3.620835774256119e-02 
8.950000e-01  5.380842079228784e-03 
9.000000e-01  4.213882726725601e-03 
9.050000e-01  4.252012367405722e-03 
9.100000e-01  4.111515922696638e-03 
9.150000e-01  4.082893920655869e-03 
9.200000e-01  4.078573801813202e-03 
9.250000e-01  4.263880856106910e-03 
9.300000e-01  3.709155250779369e-03 
9.350000e-01  1.658532103239917e-02 
9.400000e-01  8.064371788056982e-02 
9.450000e-01  1.933025657688912e-01 
9.500000e-01  3.416662107092431e-01 
9.550000e-01  5.087195729510795e-01 
9.600000e-01  6.753061071014634e-01 
9.650000e-01  8.220553719861540e-01 
9.700000e-01  9.313063179150285e-01 
9.750000e-01  9.892249373415641e-01 
9.800000e-01  9.965211736174363e-01 
9.850000e-01  9.960146212244886e-01 
9.900000e-01  9.962653812734574e-01 
9.950000e-01  9.963083604928373e-01 
1.000000e+00  9.963383606996685e-01 
